LAMMPS data file via write_data, version 2 Aug 2023, timestep = 5700001, units = metal

4608 atoms
2 atom types

0.3103374409427069 42.40966255905079 xlo xhi
0.41378325458838816 56.54621674540419 ylo yhi
0.20689162729419408 28.273108372702094 zlo zhi

Masses

1 15.999
2 28.0855

Atoms # atomic

4006 1 1.2448520606613038 2.737183119431997 0.5857832809399166 1 1 0
26 2 4.573377915049593 2.3435591054793923 1.6945533861713507 0 0 1
2366 1 4.094651159062005 0.7579994589250789 1.6064451667957924 1 0 0
209 1 5.346249178789258 2.216789186601429 0.2078444057900018 0 0 -1
1727 1 7.778549118339267 1.49957787369327 0.4472707381242502 0 1 0
1280 2 8.959753793956729 0.8577954849108975 1.5137864216799248 0 1 0
2511 1 9.444136698676605 1.8697701258520378 2.6834552723702885 0 0 0
3717 1 16.368026315850052 0.5557476075255958 1.1708108172516374 1 1 0
2219 1 16.28319145201061 2.548010211294433 0.6281543810306398 0 1 1
654 2 17.704822468588464 1.5929019929975268 0.7726811951489427 0 0 1
4581 1 18.631024796349134 2.1174609874817247 2.0207887837911955 0 1 1
4002 1 10.585970884834326 13.852023028021295 13.565936709651728 1 1 1
1588 2 1.6653452412434526 3.625386850572382 1.8961921407445896 1 1 0
4051 1 1.3301634332982037 5.287575414386161 1.459073292306434 0 1 2
2389 1 3.2450730323463066 3.375643814089987 1.9808905912499155 0 0 0
3421 1 7.3727122877402005 4.648817301782512 2.515116170287653 1 0 0
3392 2 8.627476745859063 5.471969092051322 1.848760193058085 1 0 0
3951 1 8.67594979827668 4.609383486193656 0.41957188542175744 1 1 0
3030 2 12.787838880674007 4.837795649989819 1.0823583739644524 0 0 1
239 1 12.477404031506257 4.955869071820348 2.697128110154318 0 0 0
1340 1 12.48436916782699 3.343932504794775 0.5243489294599547 0 1 0
2555 1 14.337889795919363 4.6791992764011985 0.549364389266539 0 0 1
1329 1 18.343092505900472 5.152998644345491 1.313578442394507 -1 1 0
2571 2 19.19688904653853 5.123441625339267 2.7215309338101 0 0 1
3954 1 19.860307599752193 3.5336825788798714 2.862822434555531 0 1 0
4542 2 2.386648582722627 6.527286658477478 1.8740240126601917 1 1 1
4223 1 1.6290212168229958 7.738175320635978 2.6823620667067405 0 1 0
1145 1 3.282174747730244 7.116801234206192 0.6416978129299211 0 0 1
2514 1 3.5766195369121423 6.038993957445301 2.822261992182096 1 0 0
781 1 5.615185309389804 7.696202131639098 2.6287871889336567 0 0 0
1638 2 6.904693436991702 8.117924193395915 1.6682617278821121 0 1 1
619 1 8.000593257899505 6.962353651612406 2.066092099823619 0 0 1
2944 1 9.825114110261229 6.720750684827635 1.218377317121871 0 0 1
145 2 10.391958674589032 8.02605001650613 2.263857546194189 0 0 0
3445 1 12.01675390824349 8.038024438023747 2.097144018088091 1 0 0
1224 1 14.245609521951797 8.238205144114339 0.6588225030758035 -1 1 0
2638 1 18.80681120898099 8.35122529142037 2.0488589092596605 0 0 0
2630 1 21.274242428539605 3.8640954181025347 6.861767387243337 1 0 0
3193 2 20.312818848402912 8.044235435839362 2.7718123258391336 0 0 1
2490 1 20.1470802979536 6.404853252133491 2.772398428916154 0 0 1
1473 1 7.576000102633659 9.571381210391182 2.0618346278803976 0 1 0
1042 1 9.689612458188734 9.188740066651983 1.30153736100549 0 0 0
2357 2 13.234159286690911 9.011877990392431 1.756198480409597 0 0 0
4558 1 12.763089226193395 10.3587470189595 0.988809144051323 1 1 1
76 2 13.365183358561143 11.751370450383606 0.30871191675437176 0 0 2
2618 2 17.702263312170054 9.379023155251145 1.465538786113351 0 0 1
974 1 16.767664869566648 9.765662445521684 2.7024676225099675 -1 0 1
4101 1 18.726178115871818 10.720426870461932 1.086574066118704 0 1 1
2427 2 20.39104460333854 10.506676787660064 0.9076391944775052 0 0 1
4053 1 21.14748984393722 9.115198961548211 1.6773096050429634 1 0 1
4255 2 0.8518670090996644 13.099402264312477 1.8107710930771754 1 0 0
46 1 2.20360187311533 13.597442239709475 2.6397899776044826 0 0 2
86 1 0.42099831900965695 11.982532459001552 2.904719833959191 0 0 0
1472 2 14.995272247825415 0.4964146160286298 2.0627736067818576 0 1 0
3431 1 4.833800805119759 13.30177353899468 2.1007111386926636 1 0 0
4373 2 3.6798100780162217 14.348713713628843 2.7033910198159097 0 1 1
2939 1 7.260327598912595 12.191019429338876 2.168320538307661 0 0 1
603 2 6.2694819826415795 13.187515886094456 1.2584937630984787 0 0 1
611 1 7.621807886333265 14.18651879081149 1.4224868726686049 0 0 0
4195 1 9.706173080668282 12.730002440210352 0.5372533676413438 0 1 1
2859 2 9.223346141531318 14.144653410144038 1.2183964838382824 1 0 0
898 1 14.147176312626236 12.48042836126199 1.5057861530346641 0 0 1
1447 2 15.313740469362264 13.557557116544187 1.8792554463782543 0 1 0
214 1 16.535137165169605 12.834751546800106 1.0205779195896425 0 0 0
315 2 18.072679076890136 12.308897442843017 0.9398808298526166 0 0 1
3646 1 16.01554952129846 13.744858448849083 12.379285476293363 0 0 0
3093 1 18.70609762815422 12.879380870651955 2.3653038708996155 0 0 1
348 1 0.7272498397487396 3.0105467454937886 3.1205532781662595 0 1 0
1316 1 5.738242214811871 2.605825697464472 2.803179141645768 0 1 1
4359 1 8.046076762586281 3.0368172072661372 4.2843984293605155 1 1 0
97 2 9.60931211615208 2.317259443579214 4.2978388204155475 0 0 1
2087 1 10.080259221156213 0.8075422087820614 4.794877053289337 0 1 2
1243 1 15.11110026282235 1.9316286969520522 2.9702798764498772 -1 1 0
2569 2 15.78539169509642 2.351626715846895 4.388686034073486 0 0 1
777 1 15.714076074402012 1.2642331386010182 5.647849726845912 0 0 1
2579 1 17.356653407347043 2.6602586974357485 4.166332180450322 0 0 0
73 2 18.873282896614306 2.279102698661197 3.677613048093069 0 0 1
3755 1 19.669117786803348 2.5411423582436696 5.1186286950075 1 1 1
1031 1 19.536977459901877 0.735247386841062 3.517563256137592 0 0 0
1700 1 5.970164983923182 3.610698424784863 5.2217562576609895 0 1 0
2964 1 5.960302685072179 5.234427935608277 3.9257654732022735 1 0 1
843 2 6.627690391722657 3.7028460634441847 3.647726120450739 0 0 1
1884 1 9.71304204881697 4.986129728632899 3.002261752323244 0 1 1
2411 1 10.892717423157352 3.4159031770842283 4.175806655186385 0 0 1
1808 2 11.192295153168988 4.978536042688621 3.721250846967279 0 0 2
3908 1 14.962681838142137 3.5118281158357743 5.285606128553841 1 1 0
3731 1 15.31301501552117 5.481844367640954 5.369165741791906 1 1 0
3572 1 17.8752852444125 5.328025203628684 3.7755414415067263 0 1 0
1575 1 1.7238433362428367 7.599360607760422 5.304975697278885 0 1 0
2527 2 1.025148096981244 8.384485078358558 4.046220082817296 1 0 1
339 2 4.939990937655629 6.532518395906607 3.6120968018601385 0 0 0
15 1 4.406675667170242 7.149162032967439 5.083374716665209 0 0 0
56 2 10.218485954873534 7.509529923094654 5.309620229783138 0 0 1
2458 1 10.201075348869956 8.250232747098181 3.8690368537894093 0 0 0
1728 1 8.716178284773884 7.342249073841876 5.9813705752222415 0 1 1
3633 1 11.042620289887914 6.117177156178793 4.906952260609946 0 1 0
2391 1 15.97599099374165 7.5073967298090025 3.6669945521991507 0 0 0
1084 2 16.498781948815395 6.218011908839491 4.494388631472831 0 0 1
2394 1 17.12467013022049 6.6165251731333745 5.957448793602511 0 0 0
1292 1 20.323373770463526 8.656871206806539 4.296347046602379 -1 1 1
3921 1 1.3582970379067538 9.97325385932034 4.279408973278389 1 0 0
1178 2 0.7015270436315539 11.45273141652458 4.40439984715262 0 0 0
961 2 7.627622263932667 10.885459618423193 3.0881660922180005 0 0 1
598 1 6.440314825912304 10.765309882805042 4.241427527011108 0 0 1
979 1 8.969439052175371 11.08287416235302 3.9825271891919325 0 0 0
782 1 14.2301838681463 9.393258164224548 2.950830782888616 0 0 1
2504 2 15.635750727419053 9.11792234745269 3.7273136065807204 0 0 -1
72 1 15.607600562080643 9.791846249409367 5.2502141314869 0 0 0
2714 2 20.16941840243233 9.990391888059223 5.215428333449668 0 0 0
1121 1 19.458027905551774 11.182350098029447 4.375212497878005 0 0 0
4243 1 1.802988578138365 12.598018362743064 4.823523358943753 1 0 0
1445 2 9.821145287190562 12.038714219122058 5.081667913094695 0 1 0
2076 1 10.76782095917325 13.090779724638484 4.255490372372741 0 1 0
3305 1 15.471678356961206 13.745946577417554 3.515549466989765 1 0 1
295 2 16.45837273756485 14.247001036841171 4.759130145459045 0 0 0
2482 1 17.56658932122514 13.067348221336447 4.800185801384075 1 0 0
2954 2 18.94613266458932 12.707518758902987 4.034355396187447 0 0 1
682 1 19.761691850776998 14.109419911709217 4.243317275736443 -1 0 1
886 1 5.4311425077995565 1.1042439189416877 6.244416233052861 0 0 1
3319 2 5.276871929991835 2.7857242682691514 6.434348880977422 1 0 1
1438 1 6.061437984455551 2.950089041729808 7.846376908843628 0 1 0
2147 1 9.690468758466649 3.0707861798643767 5.830761253138874 0 1 1
2095 2 10.503628987868773 3.008253536551408 7.279193817604266 0 1 1
3597 1 9.26155886014443 2.7861440937583146 8.311017177826699 1 1 0
1693 1 11.803518929974224 1.9834348151576973 7.476434787868861 0 1 0
2310 2 15.32662331053227 1.2504605513168379 7.268930319701308 0 0 0
3648 1 15.015799207638755 2.8479226425476756 7.458179777556035 0 1 -1
2736 1 16.205115707553 2.8274565558331064 14.141367911846944 1 0 0
3767 1 16.68629910002214 1.051845814615087 8.162657392782714 0 1 0
2909 2 18.299991114219647 1.289864698918956 8.356223740509028 0 0 1
2393 1 19.019240846864527 2.6766860941633737 7.820725209622103 0 0 1
807 1 1.4498844238871198 3.89971000599169 7.261629323935906 0 0 0
702 2 2.9412572744856385 4.5994738224408485 7.574589504969618 0 0 2
2295 1 3.865044678314636 3.4632632064502564 6.939447194664809 0 1 0
2445 1 11.210162087319269 4.525730283103255 7.528958977357381 1 0 0
1016 2 12.35607905876386 5.349668101230301 8.336962916680616 0 0 0
1019 1 13.70063375584896 4.604405847211514 7.811607552389431 0 0 1
1040 2 15.003228360304249 4.382318455162063 6.731772413876676 0 0 1
3452 1 16.347956394291675 5.001363841324694 7.509476729549268 1 1 1
2380 2 17.822898965544773 5.846369079843567 7.213447961346319 0 0 1
1065 1 19.02302591165914 4.93326356777686 6.569005632305352 0 0 0
4202 2 19.69719427693397 3.4306427338869354 6.5460864032733515 0 1 0
3507 2 14.858335202584929 12.917848644934361 13.175165177408227 1 0 0
370 1 2.9883384811174003 6.207400030631663 7.216489318965221 0 0 -1
4398 2 3.1311065681834314 7.4202771881475575 6.107092284850342 0 1 1
712 1 3.460660495181724 8.817932989436681 6.951220693349258 0 0 1
1879 2 7.400962133484435 8.023181790487767 6.729454191666293 0 1 0
3742 1 6.481273782287669 7.132152960093964 7.739002873489185 1 1 0
1530 1 10.986688004028759 8.505804220038176 6.304080967796509 0 1 0
1986 1 12.632665736274182 6.890908231247207 7.869875891197969 0 1 0
699 2 13.54070716999056 8.192495663678212 8.117173673805695 0 0 1
1527 1 14.808512958493068 8.710892241617827 7.2234348727565 0 1 0
621 1 17.435420920261716 8.988245646835704 7.125873903699389 0 0 1
3010 1 18.848418968420162 7.081120784331506 7.6309653289318256 0 0 2
3107 1 1.6964417339865383 10.33195054198804 7.77340555492168 0 0 0
3416 2 3.3069816497137134 10.444937577220829 7.314015608712963 1 0 0
3448 1 4.505649769426512 10.447827854763345 6.145763175843203 1 0 0
3339 2 6.080729154339481 10.806059595677148 5.850855928993166 1 0 1
1185 1 7.090036965503847 9.615133776279608 6.583046122581453 0 0 0
3335 1 10.784323151299521 11.150010993886191 6.121465476729468 1 0 1
2545 2 10.715325658289391 9.882295253492694 7.09930703709168 1 0 0
1015 2 15.99660909685083 9.693745805677311 6.844870920153828 0 0 1
3356 1 15.924462230042474 11.200119049901335 7.556083039640237 0 0 0
2503 2 18.920451078928256 8.735773909464806 7.969290413158495 1 0 0
2973 1 19.497995765808 9.65507656223246 6.748438677916719 0 0 1
365 2 2.55750957181802 13.367844613246763 6.126470945302485 0 0 -1
4143 1 1.3803288883762217 14.338623447290116 6.735939113425296 1 0 0
3495 1 3.206922959656923 12.09400758288685 6.952657895597584 1 0 0
1241 1 6.48455527244376 12.224380882083508 6.4894612258029 0 0 0
1923 2 7.661771115500068 13.218058085473515 7.071277925299131 0 0 0
3949 1 7.898922854233687 12.773167119077856 8.648256845732162 1 0 0
2075 1 8.939366733613298 12.974891946861204 6.124185211572399 0 1 1
3118 1 3.5295601373550207 0.6498979574059093 9.688056658397723 1 0 0
4563 2 4.345854369100465 1.4271501487428317 10.871046909577306 1 1 0
995 1 4.51963760070295 3.087729283468355 10.410318657212017 0 0 0
4530 1 5.829174369876646 0.695558927571688 11.013836121991766 1 1 0
3110 1 9.315593719221692 1.672852392900827 10.656409760626735 0 0 0
1324 2 8.810460995106009 2.9850682124910426 9.875641797896506 0 1 0
2337 1 18.61971262599915 0.8975622867141906 9.86392348722626 0 0 0
1920 1 20.41823456392585 1.9400443274751182 11.177163840689257 -1 1 0
1244 1 0.49501591358341135 3.2756084594982804 9.472381736383005 0 1 0
3123 2 0.46753707908577186 3.6413948495255175 11.15877930678733 1 0 1
1532 1 2.815674816878136 4.633173899325344 9.248068494843285 0 1 0
2023 2 3.315114069223554 4.208008978114256 10.740152842665351 0 1 0
3046 1 3.8890681826011733 5.620558807186478 11.43730353505644 0 0 1
2269 1 7.280596294557217 3.165564842639947 10.161426105903786 0 1 0
810 1 5.7410328083042215 5.057240770841627 9.04541695571693 1 0 1
794 2 5.859812184723784 3.480459465175882 9.42136778346409 0 0 0
4199 1 9.589971317739852 4.26308020388166 10.550193515725331 0 1 1
3007 2 10.957894034943763 5.022737284972214 11.150776378119172 0 0 1
1194 1 12.066641283973196 5.357827086037734 10.04034451252539 0 0 0
3081 1 17.853992131557856 5.634314015280841 8.895662892983163 0 0 0
313 2 18.867110626614416 5.7654620981051234 10.22053604667706 0 0 0
1446 2 20.90439941630679 3.3586488714952365 10.538431635107408 0 1 0
1116 1 19.563069010249592 4.312982337702959 10.333299639804464 0 0 0
657 1 2.632916925198485 8.00384977009829 10.886578923269713 0 0 1
3410 2 1.1611368016995578 8.646263712209972 11.287619952280815 1 0 0
2492 1 5.215644412088421 7.377919857354608 10.041613993501047 1 0 0
1034 2 4.0805775184501485 7.241350148739032 11.19633874965003 0 0 0
4291 1 7.704198975701046 6.291138069667356 10.083831041292912 0 1 1
3290 2 6.348373620344707 6.55352572737707 9.234613117559432 1 0 0
2174 1 17.820443899242555 6.337688839914108 11.405179304729844 0 1 0
634 1 20.04838285697928 6.897657744618747 9.816959953687938 0 0 0
805 1 20.283862157694504 8.725610392857055 8.937452879052262 0 0 1
2509 1 0.9700523801890507 10.047563233097279 10.412741604382754 1 0 0
1662 2 0.48988846385061435 10.569552978131485 8.919658576544501 0 1 0
1906 1 3.9465764467314237 10.544642151507045 8.862723342826547 0 1 1
2785 2 4.133282948488591 11.599737740406617 10.113697582933778 1 0 -1
1117 1 10.753618208425141 9.954866992545355 8.712250891864132 0 0 1
1313 1 10.775569297431433 8.977018697200448 11.229030329302297 0 1 0
4262 1 12.963837039267075 8.999238196602207 9.47091169601031 0 0 1
3219 2 11.688876938726857 9.864237095332602 10.098977005485173 1 0 0
57 1 12.297372218865114 11.246719013852264 10.663473419540594 0 0 -1
53 2 17.872739977018618 10.168365736708772 10.614838290453402 0 0 0
658 1 18.213952327589805 9.052435346255582 9.428413364239825 -1 0 1
618 1 17.36460111499932 11.528886389925017 9.800025262073014 0 0 1
481 2 2.46423374160165 14.260860064912336 10.156786208528075 0 0 0
878 1 2.8939404270076023 12.72578018430436 10.071138770609625 0 0 0
353 1 7.827389484434804 12.207236186007542 11.500543550950798 0 0 0
666 1 5.538160268951593 12.470952834539503 9.880874743989597 0 0 0
2595 2 7.161521615159837 12.510696323852224 10.068115574592023 1 0 0
803 1 12.640793174428957 13.640626099717533 9.50821153375315 0 0 0
2260 2 13.353049593854742 12.472864772616868 10.506011661096707 0 1 0
3454 1 14.816187921290158 11.945529972108748 9.920493913336587 1 0 1
2359 2 16.07815508022631 12.096053303100575 8.956849756440484 0 0 1
13 1 16.456347537770096 13.655092024928303 8.470354224855742 0 0 1
669 1 1.313121362669722 1.5168894201100298 13.559208187198905 0 0 0
631 2 2.4707567809466915 2.526043781738391 13.095830997927596 0 0 0
3591 1 3.5298243111343064 1.552135557595588 12.245777608024781 1 1 0
1516 2 9.407824324639536 0.8632541548681629 12.009741983247924 0 1 0
585 1 10.322969868657829 1.801034648395887 12.989322555776363 -1 0 0
772 2 11.713850607652025 2.607704084625039 13.014087162852046 0 0 0
1617 1 12.809885394727814 1.6585451002169678 12.215624783778084 0 1 0
4076 1 17.13783574210453 1.4795605473075877 12.011924398341849 0 1 1
1083 2 17.2707078396558 2.8320243707328334 12.985965633131558 0 0 0
3438 2 5.6523229921760505 13.170705485526627 14.186558427518833 1 0 1
4416 1 18.686439809547682 2.7350370821900984 13.850653929846898 0 1 0
1053 1 2.092873236525627 3.459783734572171 11.667925495086175 0 0 1
4455 1 2.1698353875799334 4.075914930857282 13.698383335249542 1 1 0
2202 1 6.041380324958817 3.2635458134103437 14.027437957802952 0 1 1
2065 2 7.220174602720312 4.4283268321786275 13.943224017822493 0 1 0
3948 1 7.7670303667533105 5.0090783268497034 12.521695647415132 1 1 0
2966 1 11.592770147440485 4.102232845092847 12.341087232043268 0 0 1
515 1 16.8284542143147 4.266137732914552 12.299662042681556 0 0 0
193 2 16.66231366016268 5.879863422629409 12.481859156901605 0 0 0
1338 1 0.8062666394266903 8.691382408243772 12.91942364791944 0 1 0
2981 2 21.341692333028107 7.9306077428107455 10.056430611305826 0 0 1
3346 1 4.940726038209921 8.163084566732973 12.302754043424732 1 0 1
77 2 6.471353958826039 8.52761817070739 12.944534341955734 0 0 0
89 1 7.707621684522036 7.602900604969347 12.436576161691526 0 0 0
3821 2 8.34132253337538 6.340088270830129 11.641913905532581 1 1 0
1966 1 10.02625083587995 6.337158634442439 11.706899115245472 0 1 0
3713 1 10.061099057503643 8.07591786489705 13.836324222152232 0 1 0
409 2 10.76690838813944 7.7521440596269375 12.34430452040224 0 0 0
1199 1 12.330623148825858 7.197341089044233 12.260553908020265 0 0 -2
997 1 15.135261046768969 6.498837897983531 12.279963697270695 0 0 2
217 2 13.846952686268294 7.23963760516687 12.950023056808739 0 0 0
2987 1 14.174751064063779 8.825455601907299 12.654015176551608 0 0 1
3403 1 17.023499722758494 6.4488418939599965 13.961453418846824 0 0 1
3188 1 20.481182691429343 6.268273963574011 13.198864649158205 1 0 0
3254 1 19.345271510924476 8.591645929149813 13.82977747163381 0 0 1
3115 1 4.106358553566761 10.895981216754993 11.644291439737522 0 0 0
1399 2 3.471259427283775 11.159055376970107 13.140179975458231 0 1 0
1010 2 7.837418772343291 11.429073623238855 12.93044744546181 0 0 0
308 1 6.862869592738705 10.101952268064101 12.79298326780293 0 0 -1
3789 1 9.192935616687265 11.60080410511336 13.895108928291275 1 1 0
3865 2 15.18992001326203 10.035136211585513 12.418375239876646 0 0 0
3161 1 14.956568308810555 11.241549782908246 13.574033072229915 1 0 0
1909 1 16.50770106931588 9.776458355339562 11.494371811798805 0 1 1
3276 1 19.10736797759731 10.326422403096448 11.69623735568971 1 0 1
1111 2 19.579473715387913 10.033989931582243 13.183210914071068 0 0 1
2755 1 21.216547117257974 10.362319187962902 13.434619713392664 0 0 0
3962 2 1.2772044117449013 13.286340580757162 12.952550172279162 1 1 0
168 1 2.083871016220451 14.242083062831618 11.773793674607948 0 1 -1
831 1 13.622905879710176 12.959825664095193 12.028166349476367 0 0 2
1482 1 2.0828409569045965 11.930284812756964 12.684907429142548 0 1 0
2945 1 4.319400200703659 12.365464034668857 13.866802812206853 1 0 0
454 1 6.8956573075401915 12.139849902246041 14.061902261937329 0 0 0
2707 1 21.175635086857877 14.384450483851387 0.5732929129783282 0 0 0
3154 1 21.201065157204688 11.835151617839506 1.4411798892344354 1 0 2
2470 1 16.89015279368488 8.7486834674723 0.28226805156846735 0 0 1
2871 1 1.9642705784437895 14.41263303395469 13.984063383689143 1 0 0
3162 1 18.748132052334675 11.070731666729658 14.182685363610466 0 0 1
4032 1 1.152478144188453 12.38274379730159 0.2797867176783509 1 1 0
1858 1 11.955457140107852 6.025671952442282 0.276411762253515 0 1 1
2033 1 1.5788615078693173 1.520035899998715 16.166419245387594 0 1 0
1273 2 1.0270733107817427 0.5903561251598732 14.929701071510685 0 1 -1
1543 2 1.8310375014467875 2.8234808081027163 17.033116655455174 0 1 0
1687 2 5.015169511150694 2.5202782013117577 15.071572632370735 0 1 0
1992 1 5.441170085909301 0.956519319544521 15.272534826920458 0 1 0
4007 1 21.28922102281806 9.398591029601073 22.935291877546998 1 1 -1
2051 1 5.282278854218097 3.0022825226137573 16.667508067429413 0 1 0
3930 1 7.1120201400277745 0.5326934921469251 17.323465299137474 0 1 0
12 1 8.321501287009651 2.5091594582453416 16.287932641662792 0 0 -1
841 2 8.652300709538482 0.9170057274186615 16.704916430769774 0 0 0
3294 2 13.000395339445635 1.7550703678060882 15.730873119034365 1 0 1
3264 1 12.481595418890981 2.5633411896605423 14.429413349069993 1 1 0
857 1 12.28254751863555 2.481449241836318 17.002723005977 -1 0 0
205 1 14.58752247873307 2.2503548569712946 16.00181703375761 0 0 0
237 1 16.820335338798266 2.565532125682701 16.60371058070997 0 0 0
2268 1 19.30601950313279 2.0241680146335845 16.424042406184093 0 1 0
507 2 19.64760980787258 1.8379697478928507 14.863341986795353 0 0 0
3462 2 1.521521886562332 4.9324984760951684 14.874575622447948 1 1 -1
3523 1 2.2023241970032776 4.461094994419122 16.346623163033478 1 1 -1
3263 1 8.139453225760525 4.660400198995807 15.295132536901123 1 0 0
965 2 8.533617616098264 4.0243511015320355 16.734478145117823 0 0 1
3060 1 12.507485997434857 5.382255927352259 16.738110598860608 0 1 0
1682 2 15.78422269926867 3.3601366573090874 15.629293500590217 0 1 0
685 1 14.733176674932572 4.562589968708095 15.2825463121924 -1 0 0
2261 2 13.796254275142504 5.853905346036523 15.780894440416322 0 1 0
20 1 16.892694864150794 4.639248590304718 15.887956832027669 0 0 0
3184 1 1.4610954800602303 6.575795956438587 14.568503972493327 1 0 0
2731 1 6.09889155002466 8.276926734172486 14.55164282045462 1 0 0
4406 1 5.594468577366283 8.616261281468699 17.099686068826824 1 1 1
367 2 6.674231925283867 7.978629684838692 16.02734797657174 0 0 -1
2985 1 6.478331778720258 6.418948698432624 16.549776334116444 0 0 -1
4474 1 8.292052284019357 8.313641908416221 15.95742548383517 1 1 0
604 2 9.834437295342234 7.94920115806971 15.413332239748957 0 0 1
4553 1 10.257217374153186 6.482747439862585 16.063702452276317 1 1 1
3332 1 13.515145583438587 6.915775124680084 14.518680353592067 0 0 1
423 1 14.662050524490907 6.701097471513527 16.86770843555877 0 0 0
462 2 17.480041455927665 6.129450450663228 15.518394665428705 0 0 0
1029 1 16.995912139678925 7.399055652308429 16.446148648485927 0 0 1
1697 1 19.064804879851856 6.342742473813045 15.34033492276946 0 1 -1
2144 2 21.341012393792326 0.5766033258246812 18.71995762939295 0 1 0
2724 1 1.0521755426160733 8.924879350730482 15.538500607613598 1 0 -1
1322 2 2.143050708553376 10.093719880246233 15.708213794883937 0 1 0
692 1 1.2110483553801854 11.387165435687681 16.036743670066087 0 0 1
852 1 3.16801383503997 9.634691375113425 16.911018984916456 0 0 0
3134 1 2.990277297857402 10.148118125468644 14.27493410761145 1 0 0
3900 1 10.807094643764996 9.031053932882461 16.116605972407832 1 1 -1
2430 2 11.858671442928372 10.22108185519448 15.7806119395305 0 0 0
2028 1 13.402642961684595 9.912383809008288 15.395172044133123 0 1 0
3320 2 14.857977292423437 10.61568345741288 15.167574796169085 0 0 0
59 1 16.003842118232626 9.550353249135929 15.50651647289638 0 0 0
1011 2 17.114761088326958 9.068719021545325 16.5226694926771 0 0 1
2841 1 18.404108592956543 10.052443102838524 16.131656544946413 1 0 -1
716 1 20.394259936341594 11.179765596475873 15.851345620698623 -1 0 1
4573 1 18.755563869421746 12.304186348903839 27.46399766398019 1 1 0
897 1 5.322666703517986 13.510992235408311 15.737170521660447 0 0 0
3554 2 5.921754625171294 14.226954788295512 17.07476361839794 0 1 0
3345 1 9.553047729316287 13.240049045188805 16.02148227560821 1 0 1
1396 2 10.176449762771355 12.626712416303313 14.635501540810052 0 0 0
3352 1 11.352906060446605 11.575161744048218 15.075184098231912 1 0 2
3449 1 14.779568558526119 11.913844407548845 16.108507669565554 1 0 1
4564 2 14.995193382658023 13.536345231806148 16.304565270888048 1 1 1
229 1 14.531639160314336 13.459547243971576 14.678069994762238 0 0 0
761 1 18.637162426089635 13.291761436623235 15.601964259686968 0 0 0
3004 2 18.810794036897256 11.608030018875152 15.757546116580508 0 0 1
2422 1 0.6111429615043791 3.1737558945596875 18.121124147051923 0 0 -1
249 1 3.1422665356327366 2.517476046162626 17.972651464441444 0 0 0
1711 2 4.669151351084169 3.020729865494507 18.25239869610101 0 1 0
2505 1 5.388956590781035 1.6529647060431831 18.772389784994065 1 0 -1
463 2 6.827491394028748 0.9378203451472723 18.926433340967467 0 0 -2
4545 1 7.830715551159346 2.130412260445329 19.43384499713758 1 1 0
2723 1 9.81527200752251 1.5421468015562356 17.68315082729827 1 0 0
1039 2 10.945003960615418 2.7219952084591528 17.882741145947797 0 0 0
1553 1 11.517886446267214 2.7283234379806376 19.40044888339921 0 0 0
1170 1 18.081643565971675 1.8249265927151392 18.843156413121314 0 1 -1
4541 2 18.18676496896264 2.6298940271735343 17.46364800163488 1 1 0
85 1 20.08966169634235 0.5505615232790244 19.798600821494627 0 0 0
43 1 2.0870182880051473 5.233440125414593 18.720183196094194 0 0 0
385 2 0.7921537061910238 4.373723348965722 19.29353298194557 0 0 -1
2479 2 3.1635495121557393 5.432270772176045 17.457683656549094 1 0 0
4126 1 4.662839540529727 4.758258043255484 17.89787634340151 0 0 -1
1912 1 5.252029524629614 3.637166958653855 19.71393839365987 0 0 0
786 1 7.371863767331051 4.481152579714392 17.765949157072875 0 0 -1
2137 2 6.168323640440185 5.6034227246492465 17.89405450589898 0 0 -1
167 1 10.118486066880436 4.194943399485297 17.32110305004998 0 0 -1
1876 2 10.979784652653311 5.700803077415232 17.31709755755827 0 1 0
3811 1 15.241666915055887 5.293965406264069 19.16272034247661 0 1 -1
1930 1 18.516627396955204 4.162580081292884 17.83679335712865 0 0 0
4441 2 19.42189139745359 5.174711691140745 18.756823813564797 1 0 0
2796 1 20.840138252884287 4.28669585966948 18.745396097989005 0 0 -1
2074 1 3.4532425863910925 6.9698398545276765 17.088218188813116 0 1 0
2811 2 4.072060965859827 8.486729323015824 17.52629770217451 1 0 -1
2266 1 6.5219452017060835 6.524159796678429 19.23785210013351 1 1 0
3978 1 11.185036218311986 6.313222590755196 18.81820120849291 0 1 0
222 2 15.090593471514849 6.755336751656179 18.41420546197411 0 0 0
116 1 15.22963092733485 8.187602335940054 19.235992638299592 0 0 0
431 1 20.18306606860531 6.619121624676737 18.57177158863847 0 0 0
4450 1 0.5922383598840473 10.871601786556162 18.345119612904544 1 0 -1
859 1 3.9737952802764824 8.868368938539014 19.12405887680647 0 0 0
2897 1 3.053715891266126 11.260263252572146 19.15902798467366 0 0 0
4185 1 5.2183844328847995 11.107895463699178 20.099367575162017 0 1 0
3198 2 16.26268229314462 9.415214049042525 19.598082199745797 0 0 1
3514 1 16.327922873142995 10.955615524737109 18.847457335932923 0 1 0
2316 1 17.10786410868479 9.200398632512597 18.147406584766603 1 0 0
3991 2 1.6684042354426554 12.062708453539472 18.81386818469837 1 1 -1
1908 1 1.68537362038542 13.417666149427852 17.923256808346032 0 1 0
2703 1 6.00720041675246 13.125217240259648 18.303150812710612 1 0 -1
51 2 5.679061140141728 12.626416663284182 19.86339449878511 0 0 0
3024 1 9.285697260376516 14.385511752485343 18.538539381235687 1 0 0
944 2 13.260123735618157 13.849112166499717 18.799077480819314 0 0 0
4259 1 11.680377029843434 14.0200453281033 18.95287254244268 0 0 0
1045 1 13.815658819470316 12.424293527411756 19.341704207273867 0 0 0
336 1 13.812540272484627 14.075748459083767 17.282923547371333 0 0 1
1581 1 16.1121881050215 13.323807822950492 17.623065805989672 0 0 0
94 1 18.33563063343451 12.09337772713406 17.293104300204938 0 0 -1
3002 2 17.168763398814516 12.314085981189978 18.452545403397256 0 0 0
4595 1 18.011850904795885 12.9515227528342 19.751428757727005 1 1 1
2273 1 20.584717383519674 13.471048426936278 19.24028401936116 0 1 0
2588 1 1.4678445109307356 1.8164228441822272 22.42599107009 1 0 0
3282 1 3.9188029510526152 2.990307037865638 21.975835467691017 0 0 1
104 2 3.04147835248797 1.7568121747922008 22.6527667255398 0 0 -1
3213 1 6.712747719280567 2.838568349666208 21.59144231817539 0 0 0
2866 1 9.576686722032255 3.290537913485089 21.20725616622871 1 0 -1
2138 2 12.77875164686499 2.448195076539233 20.425901435834238 0 0 0
2226 1 13.120449847894848 0.8471396053909777 20.45128303520792 0 1 0
4428 1 11.976434436697971 3.090962531482597 21.697341161093032 1 0 0
3512 2 18.71305057748042 1.276703794940468 20.310882302187466 1 1 0
4267 1 18.867678241800892 2.663958935769805 21.215188098402294 1 1 0
465 1 0.9185793550826045 3.6516928331879677 20.825178454073328 0 0 -1
460 2 5.2356209036740005 3.685390764940446 21.36257140075289 0 0 -1
1714 1 5.190211313634689 5.272246599754106 21.857814962740125 0 1 -1
1013 2 8.068846507994579 3.2838879227320557 20.60287161187702 0 0 0
1072 1 7.534695391201193 4.79431815024835 20.380097450854983 0 0 -1
3770 2 10.700857797409213 4.045730188369204 22.087641670587626 1 1 -1
303 1 10.902150116313921 5.593412261093761 21.456803157872464 0 0 -2
3117 1 14.141829509205293 3.234900583458952 20.201428947944557 0 0 1
8 2 15.179466774046709 4.497902175057868 20.555330725790565 0 0 -1
1096 1 14.639899237518659 5.416392941071489 21.725230496569935 1 0 0
498 1 16.750321044287674 3.972258330456581 20.908745117913245 0 0 -1
2575 2 18.28094882889049 4.16624419519448 21.47879893024896 0 0 0
1095 1 18.594033372352786 5.145015363831206 20.17399149816787 0 0 0
2902 1 19.40447282541061 5.012335677131424 22.386067012713646 0 0 1
4367 1 4.361689212558697 7.7424667790555315 22.712688990945033 2 1 0
1873 2 7.494865921083676 6.49379745620234 20.585439810241965 0 1 0
1497 1 7.179961536267066 7.121539766760868 22.08310396895155 0 1 0
1410 1 8.99520617321176 7.032431876653107 20.26932805363018 0 1 -1
866 2 10.573626590585013 6.688801446950558 20.362779180566157 0 0 0
3404 1 11.352146471965227 8.114132653899338 20.772429600387188 1 0 1
4091 1 13.816148426711004 8.181832965969948 21.824908832032893 0 1 0
459 2 14.664169562282853 6.90711919770599 22.49281561299531 0 0 0
1959 1 16.216629729383698 7.2352633644758795 22.130913492476605 0 0 0