LAMMPS data file via write_data, version 2 Aug 2023, timestep = 5700001, units = metal

4608 atoms
2 atom types

0.27613682982602583 42.44386317016914 xlo xhi
0.36818243976713205 56.591817560229984 ylo yhi
0.18409121988356603 28.295908780114992 zlo zhi

Masses

1 15.999
2 28.0855

Atoms # atomic

4169 1 1.7175285170023522 2.1959789925433144 1.7408314479693425 0 1 1
2068 2 1.6150919422616663 0.9574784342866922 2.7778733860781855 0 1 0
3837 1 7.246613238903847 0.7234665452085419 0.6647405992481942 0 1 0
1901 2 9.315202151534201 2.050136785291123 2.072870103726549 0 1 0
1892 1 9.418595292543893 0.879949123370394 1.0040345283283432 0 1 1
1095 1 3.4150863708794743 6.85292795979476 0.3133077479176104 0 0 1
2283 2 20.532001262754566 1.0733588722962224 1.5378756200477421 0 1 1
1218 1 20.094103837099905 2.636837039425691 1.4713099088700459 -1 1 0
3606 2 1.061179829620328 3.663555207627789 1.3103767956091552 0 1 0
3452 1 2.17773584876388 4.763457575445724 0.7695016727864687 1 1 1
2961 1 0.4947039668087707 4.1584707639299285 2.7634762324054405 0 0 1
3402 1 5.034812731082985 4.956747118742647 0.5678857931609743 0 0 2
3077 2 5.985458119345809 5.347090148135648 1.8243464008350008 1 0 1
1031 1 7.520306916943913 4.803538751160203 1.5163977258828567 0 0 0
4119 1 9.589139369756024 3.4860509208773256 1.4917746388419375 0 1 1
1856 2 9.011093829106844 4.827862952960532 0.8547692103099781 0 1 1
1304 2 12.870672345476967 4.660941213936058 2.2416128107493996 0 1 0
135 1 13.059229274489207 4.195334652197081 0.6966800472744932 0 0 1
1007 1 11.878438179916122 5.901571611137769 2.084083755079238 0 0 1
967 2 17.79555247033168 4.912914644005949 0.4930559124399533 0 0 1
2273 1 18.8920851019593 4.699879499503133 1.8072962052074135 0 1 1
4586 2 20.452647277764815 4.223134825260108 1.3818586882805446 0 1 0
489 1 1.4361138771249142 8.38362696639878 1.0256600789067543 0 0 0
2948 1 2.775000490497448 6.724663922950695 2.6242307533186064 0 0 1
2546 2 2.909661923668551 7.855709362828836 1.4952193432400902 1 0 1
499 1 6.04448037620091 6.954414409379019 2.1380228936673813 0 0 1
2787 2 7.073426996383083 8.089905659367451 2.759326617568023 1 0 1
3710 1 9.934005316284603 6.140159559930747 1.038617056926243 1 0 0
475 1 8.301438016506514 8.363957020839504 1.6649314135569155 0 0 0
4218 1 11.566366992268453 8.244373904090233 1.9441102851750658 0 1 1
626 2 11.43951893299637 6.9696560787642 0.8857293438246053 0 0 1
2915 1 16.085827172171108 8.831863867532137 1.3008698691326643 1 0 1
2934 2 17.45070029292298 7.950318201697717 1.1936408246932033 0 0 1
425 1 17.13767833976586 6.335708341078728 0.9817375537669084 0 0 0
2399 1 18.662983204756877 8.329606705033298 2.271491661134185 0 0 0
328 1 21.23724229187723 8.493921069213837 1.61022863989154 0 0 0
1168 1 3.7536061343496065 9.139360001610175 2.0151310096500774 0 0 1
171 2 3.954827130129923 10.834225925149296 2.0581818520335373 0 0 1
2709 1 13.426165909880448 0.4644358020726216 9.83416627276152 1 0 0
781 1 6.559159429749863 9.552420387826173 3.2859554177788226 0 0 1
2347 1 5.5418313070137994 11.319983131281324 1.7303478648760473 0 0 1
2508 1 9.725057170753258 10.383473751693561 0.7789925017413647 0 0 1
3797 2 15.01179101103797 9.787995385530738 2.115552424605518 0 1 -1
1145 1 14.023559091620434 10.691360060786424 1.1551159113977245 0 0 0
3273 1 13.884719903302111 8.88579936784166 2.9390485620794573 1 0 1
1040 2 20.02500182204624 9.274403942620877 2.3540682185654043 0 0 1
546 1 19.275798684009615 10.628953661987127 1.8444939402263296 0 0 0
840 1 21.08284600110173 4.902702273480677 11.952467756050556 0 0 0
1049 1 4.609869504072484 14.07247108751469 2.84929646448481 1 0 1
729 1 2.943238886012206 12.09271033059163 2.386600724618007 0 0 0
1886 1 16.79919420062041 0.5705107710677608 0.9931210994448175 0 1 1
259 1 6.241176489023308 13.97364849725809 1.0552477140987375 0 0 1
844 2 6.621186520232043 12.395182393023008 1.0399358695993222 0 0 1
1643 1 7.364774888767836 13.96352133104899 3.208192014292463 0 1 -1
2440 1 8.19038284964737 12.288157808873379 1.5795875385179112 0 0 1
894 2 9.734540375470957 11.971013369895559 1.2656838620088702 0 0 1
926 1 10.153026491064058 14.121873812844152 2.6086666176559965 0 0 1
947 1 10.73759785139648 12.18334865519198 2.572079750582153 0 0 3
1162 1 12.474959408764272 12.929922055816068 1.7142725490737647 -1 0 0
457 2 9.069613538451831 8.970024559309238 0.3481974569828923 0 0 1
4249 2 13.316429377163221 12.081260086455591 0.5625001076099132 0 0 1
1704 1 18.307513997099583 13.162234430224238 1.5166934582710108 0 1 -1
3630 2 19.01103809833279 11.858094689819872 0.7956600474349668 0 1 1
3955 1 1.925351156363799 1.519453442583091 4.318098785623379 1 1 1
1903 2 2.9997206486423895 1.8165590906860583 5.533193797594537 0 1 1
1066 1 4.037307934995945 2.906327900489275 4.7645785827374665 0 0 1
401 1 7.932644089002795 2.030185896375436 2.970786494270394 0 0 -1
880 1 6.503029886815454 0.4506564732346153 5.084139869472618 -1 0 1
1073 1 6.224940632819057 0.9486936020706899 3.1638779248749165 1 0 1
1688 2 7.070331322457332 1.8309194788944365 4.332619420339953 0 1 0
2112 1 10.570574030528823 1.8088214167803984 3.0687310385352315 0 1 1
59 1 8.37101100237017 1.8084200829112518 5.499711029502332 0 0 1
3343 2 11.505943616294699 2.539619875405878 4.162414365828156 0 0 1
1316 1 12.08481262664895 1.4068037828110072 5.13028400089348 0 1 1
885 1 17.272639789606316 1.2700219838785207 3.561173709899895 0 0 1
3147 2 17.92332504928192 2.0915297970503373 4.771183312325953 0 0 0
3196 2 4.973598406278911 4.307352129201465 4.848592292286038 1 0 1
1029 1 3.4387276693716413 5.013250632511143 4.595872053140932 0 0 1
643 1 5.536928074575172 4.505454698118574 3.2226889912952603 0 0 -1
4122 1 6.328140234084501 3.276138755983964 4.88246272287773 1 1 1
3960 1 5.925967430148728 5.711103280213389 4.843056312231677 1 1 -1
235 1 8.606314642318615 5.365149907028353 5.1906760181327725 0 0 1
3493 1 10.339015200357673 3.261698553978079 5.169372203528397 0 0 0
2717 2 9.910217704535237 4.633690107755525 5.860371566954098 1 0 0
977 1 11.260518177848459 5.566206643905095 5.9013882848353925 0 0 0
382 1 12.572977861950523 3.5298907225367597 3.42964457241661 -1 0 1
3588 1 14.214086565075636 5.404997758137026 2.842245530941173 0 1 0
896 2 15.367100856023905 5.381711432706169 3.946181044289963 0 0 1
2446 1 14.923712578551674 4.131908678733565 4.958171532551549 1 0 0
177 1 18.72521682885752 3.406525483899228 4.143695966245641 0 1 1
3446 1 16.834175643902086 5.096727023503137 3.211812938158659 0 0 1
3220 2 18.44246445355656 4.913098225270357 3.466234570676822 0 0 1
4008 1 0.9069704920192865 6.232343531480501 4.2326265866617225 1 1 0
28 2 2.536066738385678 6.3452608455209605 4.191754910628818 0 0 0
2640 1 3.124323646647682 7.809418381373251 4.7236404284032405 0 0 0
773 2 7.372627146165625 6.382759813469027 5.301904419571023 0 0 0
2553 1 7.733504321546085 7.396203367908621 4.100758789563562 1 0 1
2699 1 11.76889028488894 7.705527031311053 4.393052550409193 1 0 0
3055 2 11.763122747697786 7.099631625955573 5.920567708687192 0 0 1
2530 1 15.314819188322325 6.778533879606249 4.82264045494357 1 0 1
4391 1 18.76373828509936 6.063602226552041 4.576086724649526 0 1 0
4065 1 1.4720114725980642 9.912200285655583 4.158700631808414 0 0 0
627 2 2.988517553477371 9.421954880790262 4.652903297047371 0 0 1
428 1 4.169441792348548 10.223683665160376 3.693162518297262 1 0 0
3821 2 5.768631393198456 10.464251856432757 4.289569368104553 1 1 0
3167 1 5.994811532912128 10.19186274165186 5.823921817007364 0 0 1
3463 2 12.296634258293258 8.767895221296952 3.291630819593071 0 0 0
3610 1 11.85721564062347 10.147184601172146 3.9292568246142814 1 1 0
3365 2 15.65863225607085 10.45144858123558 4.989081082029476 0 0 0
1101 1 15.750921056183637 10.43556785286406 3.361792308513056 0 0 2
743 1 14.747937369130602 9.104755014545274 5.4642601071921195 -1 0 1
3519 1 20.877002217795223 9.813427568720815 3.8037418071200664 1 1 0
3486 2 20.629140582086563 9.207683434720941 5.345247688067357 0 0 1
2338 1 0.5018166700372971 11.861810657014692 5.428132150452636 1 0 0
1959 1 2.8762590742156577 13.131041575186133 4.8544324306773685 0 1 1
1685 2 2.997996026994943 13.539477550478853 3.254972973162978 0 0 0
693 1 6.0331247803745685 11.968750069524836 3.695250685156932 0 0 1
2402 2 5.917523083485481 13.621027209921156 3.8644567153652982 0 0 0
201 1 6.128501144726225 14.019204316221417 5.438235070638666 0 0 0
2349 1 9.96872575682839 11.695859721781625 5.121629397798685 0 0 2
4247 1 9.010483772329183 13.980191590755226 5.225178029734781 1 1 1
1900 2 11.255297432423855 11.645597564004222 4.066979706472223 0 1 1
2538 1 12.395192935714766 12.404987610823445 4.9851218169297695 0 0 1
346 1 15.026764438652627 11.771572736429276 5.683047446172169 0 0 0
3369 1 20.954195092813208 12.474885218194535 3.407876046459148 0 0 1
2550 2 20.349112747186883 13.829893588313487 4.205594355170289 0 0 0
1961 1 19.36063110044653 13.312078283110159 5.405042762643673 0 0 1
1698 1 2.263945593821754 2.4057533381846263 6.949497002047823 0 1 0
2377 2 0.8022154254410783 2.8577270952587757 7.643712111620356 0 0 0
672 1 8.13843291931756 1.7326808725306966 8.230442415703086 0 0 1
3488 2 9.07996469197176 1.2814066993974205 6.923023239729085 0 1 0
446 1 10.668192877112903 1.736919374588198 6.970429990286457 0 0 0
4563 2 12.386865722413319 1.2788342958740795 6.7796930846960874 0 1 0
2558 1 12.726604310096352 2.1929500307527543 8.15503514715308 0 0 0
2225 1 13.899346064862824 1.9419585420471548 6.041149704070574 0 1 1
986 2 15.223014725927897 3.0313105294119085 6.0874532221239726 0 0 1
3352 1 16.680468786782058 2.385666473568721 5.782081548935027 0 0 1
2242 1 18.925015004998023 1.1160261673022567 5.6373547239073165 0 1 0
3105 1 19.545286838358702 0.8221304481057754 8.238177275992902 0 0 0
1148 1 20.890485784044532 3.013808457664441 7.4958199900012605 0 0 1
4600 1 2.6433577461303974 5.3966628727770845 7.498275090080839 1 1 2
105 1 0.754556659987669 4.348030116577703 8.409479121970987 0 0 -2
891 2 1.2776204958302801 5.918096879123115 8.31745421819376 0 0 0
2096 2 4.230048346368915 5.121883539684267 7.852570736160426 0 1 0
4527 1 4.9700035068097295 4.562994212496513 6.515153864212832 1 1 0
1991 1 9.387223041027529 4.523140055425382 7.36766001972897 0 0 0
2425 2 9.214643077566526 5.340888306965611 8.724634933399663 0 0 0
501 1 15.278141130159801 3.6096738128396444 7.635512934446638 0 1 0
776 2 21.22478723696282 4.478663252202006 6.842471466350862 0 0 0
1603 1 20.04255986344306 5.677061568799946 6.968348026255098 0 0 0
1414 1 4.182921559871959 6.784840484572137 8.146072999234946 0 1 0
4601 1 6.936672756253134 7.158238397375159 6.706675238619783 1 1 1
3966 2 7.3953681409455445 7.779836801111951 8.188065302219272 1 1 0
474 1 7.849570952493538 6.253268594497608 8.744247636471659 0 0 0
2719 2 10.38439240126601 8.687762585393212 8.33321840262786 1 0 1
2802 1 10.948291497431791 8.066911779670136 6.919599848942142 0 0 -1
516 1 13.280118116492703 7.220412540690205 6.453236446014706 0 0 0
2740 2 14.82645157178557 7.687084728747697 6.124442493703808 1 0 0
468 1 15.67924673456467 7.827221289608619 7.484380779324916 0 0 0
2584 1 17.705942675443776 6.543960633873116 7.241244231827158 1 0 0
2932 2 16.76590345933131 7.146133185142514 8.464194652295152 0 0 0
4223 1 19.441143123457664 8.163586886807604 5.728107485203504 0 1 0
2305 2 18.916106708961614 6.598891853264378 6.150194469687547 0 0 0
707 1 0.562488541393706 9.69154741147068 7.39373379802188 0 0 0
724 2 2.104871781756743 10.136208594821122 7.5163812459026875 0 0 1
35 1 2.8863454897917595 9.266033533877891 8.63669731437931 0 0 0
2950 1 3.0811427905648427 9.902110636600552 6.173244446807511 0 0 0
2056 1 5.324441413040531 11.353824352029935 8.045340421563253 0 1 0
860 1 7.385939602459821 9.459434163916644 7.897742486197316 0 0 1
4 2 6.66280501881476 10.768914309592546 7.204452811387244 0 0 0
1645 1 10.083180315381611 10.290129144063114 8.135103357365086 0 1 0
3681 1 16.905179959281234 10.118942854648834 6.000872978952039 -1 0 0
3436 2 18.20012763896064 10.654938375569689 6.818119425024891 0 0 1
1666 1 18.650198496294344 10.035069410672662 8.310462756264828 0 1 0
695 1 19.62445205265958 10.414896531322924 6.0343567391276425 0 1 0
888 1 2.5392727308195235 11.779404680318283 7.260342826504782 0 0 1
2761 2 1.7922977715912096 12.678175334862663 6.047069492952352 1 0 0
906 1 1.2143491092942864 14.031565155911943 6.683400363326183 0 0 2
2782 1 4.444365052232168 13.777120354631213 7.461396584182453 1 0 -1
2092 2 3.950369992157664 12.359988268231533 8.0405749426725 0 1 0
3274 1 7.672138009479192 12.09287655641347 6.757131008026002 1 0 1
1328 2 9.146342525095273 12.618017201712004 6.195120756378094 0 1 1
2995 1 9.925833386003726 12.62165023665367 7.640509715209229 0 0 1
3139 1 13.337156180640525 11.989382947043724 7.731652711011376 0 0 0
796 2 13.637381094476758 12.469165294884032 6.163344162101104 0 0 0
979 1 14.267708923664777 13.988974729523619 6.690885555954306 0 0 0
2661 1 17.990694138805022 12.259514026227192 7.177673647287006 0 0 0
623 1 19.66687401122004 5.047625313959749 14.16348975886304 0 0 0
2451 2 18.654500323895423 13.692960089526833 6.850689567713585 0 0 0
3946 1 1.7130813223071397 0.8760577708942007 9.857090921965339 1 1 -1
1758 2 1.7146963620662063 1.9176386355874024 11.151451478687301 0 0 1
2480 2 8.042933478866498 2.603470244714016 9.681430337217856 0 0 0
2568 1 6.539426490773941 3.186849455354729 10.078873946869933 1 0 -1
3641 1 8.785811858984626 1.781967339447563 10.862822933123931 0 1 -1
2234 2 10.303196591840265 1.356299731403944 11.387085120497034 0 1 1
4167 1 11.503952042480673 2.091111083978376 10.526228852550558 0 1 0
2500 2 12.943337530566051 2.0548818112817164 9.814613749820081 0 0 0
857 1 14.06677442371298 2.9731701352116313 10.524576798984288 0 0 0
1063 2 18.370637972467524 3.0366273497946654 10.674240820567821 0 0 1
3170 2 20.57914587087502 1.9647479972864954 8.700988112859463 0 0 0
925 1 19.77106869952988 2.596752336493264 10.01582680374032 0 0 1
2700 1 4.5335500678905705 4.363331057053988 9.321246545643275 1 0 0
2407 2 5.443796089564367 4.316607737377213 10.652885380710872 0 0 0
3231 1 6.044787698382721 5.822238661018888 11.084934066126625 1 0 0
2241 1 8.945259921578769 3.9504169701848912 9.501282772912733 0 1 1
1192 1 10.728193137014078 6.018315191051049 8.983421008591826 -1 1 1
1072 1 15.97886191094888 5.850854891923085 9.311055058336347 0 0 0
3625 2 16.24378460307601 4.318320539213493 8.761810711082843 0 1 0
3063 1 17.265302252910704 3.281714916147823 9.505509051923482 0 0 1
120 1 2.033964157646161 6.858921626358327 9.541503526406098 0 0 0
673 2 1.5193570823392861 6.8851711054646865 11.126008069753452 0 0 1
3133 1 1.712314755007851 8.49091308721324 11.472115211372758 1 0 0
1635 2 3.397867572682533 7.7844027812639185 9.163161274450921 1 1 0
4507 1 4.345841559544406 7.85399649101062 10.48504785162332 1 1 1
4514 2 5.852790115292715 7.426756219602967 10.967386948680488 0 1 -1
3537 1 6.438768146479347 7.901301658598514 9.49184686672786 0 1 0
4044 1 9.0081771346478 7.889422028161264 8.511552332772155 1 0 -1
2977 2 11.65055887578734 6.669551192677574 10.175501787897993 0 0 0
2701 1 11.326489258169207 8.311095806445104 9.678019196142895 1 0 1
3179 1 13.268365228876123 6.409101890836533 9.945042456096086 0 0 0
1009 2 14.846494491429198 6.262191478940334 10.504411533323845 0 0 0
117 1 15.471986461180713 7.725857239837794 10.91952524266321 0 1 -1
3165 1 17.33698240355897 8.245972096698393 9.583018884461334 1 0 1
1035 2 10.041635163567907 11.66984478744399 8.953633668618622 0 0 0
180 1 11.109750926044075 11.019928131411051 10.032225912724668 -1 0 -1
268 2 11.812768814821435 9.602959404722407 10.620841722918163 0 0 0
3191 1 13.208784854141278 10.060570457675333 9.80034763268818 1 0 0
2429 2 13.940976747442864 11.36099499041421 9.131532205163417 0 0 1
989 2 18.109812464715763 9.65022468286884 9.778479745064564 0 0 0
13 1 17.44410625972677 11.036342546634296 10.519326667217582 -1 0 0
1097 1 19.131124185353237 9.245803707029511 11.096371588375916 0 0 1
2570 2 3.007751352625685 13.330198532732977 10.952722450437367 1 0 1
1271 1 3.4667017136909677 12.464062310112904 9.611075163254316 0 0 0
1052 1 6.865212304844046 13.530138097849305 10.776372489962709 0 0 1
2576 2 7.934500924778807 12.292168430222649 11.252946115364422 0 0 0
4311 1 8.693518724826495 11.976629787713584 9.8647046264358 0 0 1
634 1 14.985636163497686 12.055031386776346 10.143203951705287 0 0 0
3315 2 16.165691551432303 11.731968712084793 11.2495713051217 1 0 1
788 1 0.3568734637847097 2.5930837835954135 11.712983206881708 0 0 0
4575 1 2.9974398534912394 1.5388790664892407 12.130446079683573 1 1 1
4202 2 4.418062377224278 2.077930282972127 12.718428562496713 1 1 0
831 1 5.577936635142277 1.0286617254095574 12.390602903445172 0 0 0
2596 2 9.055063570637282 2.712990600901191 13.710307121064513 0 0 0
3444 1 10.4370256827951 2.0564822830200518 12.91050707967872 1 0 0
1826 2 12.047600197092358 2.376220128726358 13.526266605015644 0 1 0
2917 1 12.593746050074445 0.8191111331837038 13.211846243910937 0 0 0
2007 1 3.865798953781905 0.4529834495884404 5.874120273932741 1 1 1
1266 1 16.053367138708754 2.775235772222213 12.509632853639337 0 1 0
4164 1 17.724695977873253 1.8180913495645306 11.53660916508516 0 1 -1
223 2 16.839136729392248 1.3543794700246858 12.907985936179191 0 0 0
994 1 18.583058864957742 1.2817776345690834 13.265399660671145 0 0 1
2215 2 20.03171453994837 1.4486495625289717 14.101992992857449 0 1 0
3812 1 4.725841140386738 3.5678076981696742 11.981195459865813 1 1 -1
2759 1 9.376960774420878 4.293921191931819 13.306904089433317 1 0 -1
3989 2 10.729217742724368 5.261446094680798 13.046731953546985 1 1 0
599 1 11.740377813603972 3.921815745602942 12.9231271121476 0 0 1
993 1 11.108128620352 6.22564661802989 11.656336347336017 0 0 1
958 1 13.579499292765986 3.0667248631528827 13.132732654077664 0 0 1
3192 1 14.875500243228378 5.091510743816058 11.63074559218514 0 0 1
361 2 14.66675415831211 3.4898703985193475 11.95682804286503 0 0 0
3930 1 18.513974868381812 4.297793979229381 11.710318218194578 0 0 0
3721 2 11.76014642827634 14.36064482668931 2.0616583461300095 0 0 1
1594 1 1.593993639743915 14.336685532278361 2.9108993609993834 0 0 1
32 2 19.600087293512164 5.222966368147123 12.560513232604242 0 0 0
763 1 1.5328681441312457 8.676523837232327 14.1410224458504 0 0 0
3907 1 2.2440197582678243 6.651594246247199 12.573496207396666 1 1 0
3560 2 2.164386674073577 7.094751266265591 14.19889118548692 1 1 0
1312 1 6.265527203700856 8.460158040187935 12.239647461462106 0 1 0
901 1 10.674561285150093 6.925717348223149 13.505666165181756 0 0 1
1062 2 11.466133711354063 8.344526483522948 13.682955731381773 0 0 1
657 1 14.90709614349936 7.755179508646511 13.047246210177859 -1 0 0
3675 2 16.00658371679063 8.67944480494716 12.245921604781511 0 0 0
237 1 19.583852433225314 6.866264742091303 12.237432687509148 -1 0 0
2646 2 19.227229720662322 8.455725697494753 12.513073330256745 0 0 0
2549 2 1.6867705592829034 9.545617502941186 12.712533111190206 1 0 0
12 1 0.5347021859557515 10.556779762167034 12.255283136910247 0 0 0
3211 1 3.0728751106000116 10.271812421023036 13.084154385053639 1 0 1
1960 1 19.783952012848083 14.291281881672845 7.898861213636756 0 0 1
2026 1 5.598303424869474 10.496133614640828 13.950693141962141 0 1 -1
3250 1 8.08653598929384 9.493634547942403 13.666502914263457 0 0 1
1476 1 7.100823276097747 10.97421070354194 11.714504403789316 0 1 1
245 2 6.675095270427548 9.867515529670163 12.880775919286583 0 0 0
4127 1 11.82064450846078 9.194486576806394 12.286251770879556 0 0 1
2722 1 15.609570176823878 10.315029906978067 11.929600021981194 1 0 0
2373 1 17.574629592517695 8.536665164855526 12.825168450738301 0 0 -1
737 1 20.170123507635992 9.11115636258823 13.750902383068722 -1 0 0
4295 1 1.7008223464734522 12.533930484218619 11.688536005315838 0 1 0
3659 1 4.315284513815725 13.913473979649678 11.893356566560117 1 0 0
2695 2 4.0966078472324945 13.963420314763034 13.537028208281658 1 0 0
4463 1 3.69626787493107 12.485440234293886 14.093605916572002 1 1 0
814 1 9.070519115805048 12.515167749013763 12.443661846989823 0 0 1
80 2 10.052846357680178 13.46934755918424 13.402558456846732 0 0 0
4241 1 11.54274920811002 13.733006917049057 12.818993798370444 0 0 1
1116 1 21.196610248925047 4.4406109118667745 5.2419211282634635 0 0 1
1382 1 14.334887151607845 14.122376862653645 13.008603130511391 0 0 0
3109 1 17.645770777346943 14.171086425796478 13.327334571838302 0 0 0
1343 1 16.26833893808046 12.93455501234036 12.348099465335787 -1 1 0
622 1 20.383616790199312 13.626138170720962 13.524189279880474 -1 0 1
2712 1 3.7375403255895305 10.5429250649279 0.40161153579089326 1 0 0
3084 1 3.7983251964373257 14.252977856868451 0.48400602814223304 1 -1 0
889 2 4.056301949079341 10.901479763461671 14.233898976096768 0 0 0
2396 1 20.601190172737954 12.030688333760265 0.3069334054456654 0 0 0
1658 2 4.925651493681169 2.8554658695453354 15.799045453573948 0 1 -1
232 1 4.239555464203964 2.299311966075764 14.43160947791422 0 0 -1
4031 1 6.364568677069952 2.2344887961038076 15.728740698642229 0 1 0
4184 2 7.835369768991604 1.9598581401629809 16.45931185864254 0 1 0
3357 1 8.897599639629917 2.128519334911114 15.214919944681014 1 0 1
2085 1 11.709354888285855 2.5762315644322786 15.183670730422 0 1 0
2188 2 12.130189036846694 1.2431041458687098 16.18055122653761 1 1 1
3975 1 13.755004635739336 1.0640299852348445 16.168254755768555 1 1 0
1835 1 21.15509760142566 14.030736977933355 26.58403672553531 -1 1 1
3640 1 19.939808220480085 2.7489374411380147 15.12137092242377 0 1 0
4097 1 1.7666278550521695 4.619685108223059 16.56633635787485 0 1 0
1011 2 0.6244692709439063 4.648962367240679 15.445972487256379 0 0 1
286 1 1.0383714291434467 6.1295214769561195 14.916190365398204 1 0 1
1507 1 4.949674825375763 4.471807411774132 15.565901943180139 0 1 1
4037 2 4.617385912841522 6.038124352096294 15.907218388687387 1 1 0
42 1 10.838685487709375 5.1681444140797 14.69686263024483 0 0 1
4374 2 11.128872546144223 4.0831023417429035 15.934782279913295 0 1 1
112 1 12.527550329808614 4.515102539147278 16.60456943544029 0 0 0
4544 2 14.013926063184552 5.0523175076981595 16.358458581038484 0 1 1
846 2 20.33732436782338 4.345145325232378 15.509482900172154 0 0 0
37 1 19.34742749051283 4.290904388042026 16.874495214326735 -1 0 1
1689 1 21.01437746677055 5.531165520684747 16.492526378943367 0 1 0
4559 1 3.629145197752557 6.831837594954822 14.891852780783287 1 1 1
3661 1 6.207253158411513 6.521381082981256 16.02005781035198 0 0 -1
1418 2 7.5501152578204325 7.128128928837372 16.781931484573548 0 1 0
1102 1 8.622246917386672 8.084910874257671 15.93883727162858 1 0 1
2577 1 12.740951301438267 8.006155015495953 14.582547027689452 0 0 0
3205 1 14.23813536354027 5.9159662749062045 15.029665526025898 0 0 1
2906 2 14.290317817388292 7.432303958599547 14.52119724125324 0 0 1
4248 1 15.324063136297813 8.17908833522099 15.482080753985558 0 0 1
705 1 21.113608663433354 8.035779192777198 16.183656002631096 -1 0 0
2380 2 0.7436834567434705 9.428828123539894 15.443811708615245 0 0 0
2533 1 1.678555099361479 9.509550584669856 16.769718363277395 1 0 1
644 1 0.49470383351788527 11.066156833510632 15.227346441591644 0 0 1
2851 1 3.7246739977069714 10.460511745778966 15.830842668390233 1 0 -1
79 2 8.922232060923688 9.407946524672568 15.011897428496395 0 0 0
2087 1 9.122195175650624 10.838546451089776 15.852289491518807 0 1 0
2942 1 10.467929048589985 9.310495092381567 14.54205811474199 0 0 1
2560 1 11.714415305592148 11.205387697749366 16.662002782496174 1 0 0
2883 2 15.522092479427583 9.170428427834365 16.783308623912852 0 0 0
2733 1 14.20073940973375 10.13632574130861 16.678154532894467 1 0 0
312 1 16.931031452918234 10.008153467352683 16.653991959718798 -1 0 1
1054 1 19.57485021535436 10.180764084490127 16.01257697128397 0 0 1
3940 2 20.756863258039417 9.359918542838606 15.285750848799038 0 1 -1
3524 1 0.7298644253404197 13.565436909582564 15.969647681129088 1 0 0
2771 1 5.428651742132504 14.400610549607292 14.443690486462753 1 0 -1
483 2 10.246143652250712 11.940436534168226 16.300421618674694 0 0 0
2890 1 10.500688366693758 12.942646312359075 14.994143816088291 0 0 1
2471 1 4.274676892359048 2.3891803671281364 17.24733869519005 0 1 -1
4154 2 3.7436299172112437 2.596420198684867 18.80123318214975 0 1 0
2487 1 3.3123918058945714 1.1028095943738085 19.621085987092595 0 0 0
3516 1 4.705526937773495 3.444496391181018 19.81865644872016 0 1 -1
923 1 7.89333399316972 3.3528247864483816 17.30439524681913 0 1 0
3085 1 8.736666671388296 1.5878868502168766 17.8341570508419 0 0 1
3248 2 10.09770649615342 1.0396394194001481 18.598999039195537 1 0 0
816 1 11.429573852808064 1.2895996123377953 17.695331917152146 0 0 0
63 1 19.754125294188416 0.7949790706203073 19.220760154164875 0 0 -1
2024 2 2.3818576819377113 5.275512940331337 17.91206757741331 0 1 1
4121 1 2.6809532000401943 3.8571580075968512 18.647140926420327 0 0 0
4338 1 3.7459221056874616 5.890618613411915 17.259443250853383 1 1 0
2420 1 7.4457826384585255 3.883922948431334 19.219582002041253 0 0 -1
3974 1 10.074227222650684 4.0301944529971685 17.233020841000965 1 1 0
1298 2 8.719587542961067 4.451367249369917 18.175868952005843 0 1 -1
3756 1 9.357296842408731 4.24735110451579 19.74579164336847 1 1 -1
3621 1 8.52607602909842 5.942915508729609 17.535967710676577 0 1 -1
326 1 14.895160747156234 5.385029690523598 17.710893638955927 0 0 0
2448 1 17.334414201428398 5.840492541402412 17.91009110373977 0 0 0
218 2 18.79247580679677 5.13298864669369 18.209275119139278 0 0 0
2327 1 18.74564646007966 4.269463806040013 19.671522333090227 0 0 0
2101 1 1.4689348175023111 6.367004210494394 18.69915395813782 0 1 0
1693 1 7.0852307391760325 7.688093299224478 18.258936750012666 0 1 0
1699 1 15.57989969695598 8.053414012561074 17.98685485931002 0 1 -1
4181 2 15.90822086444248 6.5181519020808025 18.388064125048555 0 1 0
3688 1 19.738788903024528 6.4660617315288595 18.23445833316156 0 1 -1
436 2 19.977484753262278 7.9807918726441835 18.692299777505077 0 0 0
2464 1 2.402374801681504 11.694541809864722 18.083585941007005 1 0 0
295 2 2.9828467291437932 10.38206971397488 17.339086249366492 0 0 0
431 1 4.008182322835772 9.664348410779612 18.37249020498117 0 0 0
2742 2 13.15615039657786 11.164285192222357 17.441703581467543 0 0 0
208 1 13.05723007071656 10.539240168330382 18.943652994817405 0 0 -1
2474 2 18.439986938870536 10.286717379614771 17.26112036706505 0 0 0
3011 1 18.849248887940544 9.064426950057374 18.273240095787983 0 0 0
1319 1 1.6700810419082759 14.159186017290699 18.40944215029459 0 1 -1
3628 2 2.2278304885015316 12.859209024968637 19.229567856647858 1 1 -1
3378 1 5.935631027532076 13.430978595600479 18.93742700790502 1 0 0
21 1 8.30163282384044 14.309761229857841 18.455482082755267 0 0 0
1181 2 9.58389605013851 13.410318598266846 19.158251808319438 0 1 -1
419 1 9.595709988739015 12.79469799014033 17.608061642362856 0 0 -1
3662 1 14.264803009076662 14.34440154250061 25.978453531564057 0 0 0
1673 1 13.912066464185488 12.585782563372627 17.231782031208567 0 1 0
1084 2 14.271217262970262 14.025552904822732 17.920313510759254 0 0 1
590 1 15.890332547065983 14.217933613719119 18.12220692529894 0 0 0
1628 1 18.16416157777669 14.114807672707002 19.434822958323533 0 1 0
4186 1 18.578838453439346 11.652415382565554 18.132554134587753 0 1 -1
3411 2 18.690351629330234 12.559709645445222 19.483473869980607 0 0 0
566 1 21.125942010752297 0.4283461897367212 23.23862131991159 -1 1 0
2854 1 2.4750651647081514 2.9142843558847114 21.631403976225897 0 0 0
1998 2 2.6980730568568214 1.3165349350555808 21.22424750135745 0 1 0
1672 1 3.739116279616427 0.7121989518147074 22.32097316183846 0 1 -1
1432 1 10.374430554807516 1.9447987272735026 19.961378883969616 0 1 0
1068 1 9.27485341820974 2.5958038234304794 22.195935928655654 0 0 0
5 2 10.007197265746832 3.238938091878262 20.88991816389226 0 0 -1
437 2 20.712548938364407 1.8917066164380105 19.971054266099408 0 0 -1
1867 1 20.10400019379412 3.08936138377166 20.898823367723285 0 1 1
613 1 1.745932977425582 5.531741223028895 22.358186979974008 0 0 0
1025 1 5.978226174495536 5.872071596213243 20.003440073412683 0 0 0
271 2 6.121255501468836 4.260877419030433 20.149180626775674 0 0 0
3881 1 6.444413960522024 3.84177348237706 21.756349558077805 1 0 0
2685 1 11.34673058851956 4.008978826904711 21.311114148028896 0 0 0
1088 2 11.9538500817128 5.420170859074427 21.848578377471018 0 0 0
4503 1 13.386223798431342 5.989836518022576 21.27759843796466 0 1 -1
1989 1 17.73681975222183 3.210869697972833 22.263892396718663 0 1 0
981 1 17.64302109760695 5.290685109085027 21.755771576236004 0 0 0
2432 2 18.83268293594875 4.147943800124525 21.399365330347756 0 0 0
3154 1 20.041742612953815 4.938590418399898 22.36717285200278 0 0 1
2696 2 1.1206306441025435 7.035566970839214 22.574750428734983 1 0 -1
2272 1 2.4147153622223616 8.134637558007885 22.77843484504633 0 1 0
2593 2 6.749831904204325 7.297154655240233 19.84848009832335 0 0 -1
2891 1 5.843815005663877 8.553392647938974 20.292626098484583 0 0 1
371 1 8.258541309232282 7.257656231328858 20.530951651885875 0 1 -1
2091 2 9.222362044222681 7.021026639547568 21.863745951805832 0 1 0
4151 1 9.441136825477415 8.556612495901557 22.36987829354272 0 1 0
2676 1 10.773650962354257 6.530739905804658 21.7101322825494 0 0 0
1024 1 15.5421314269252 6.525537127993074 20.024319969462844 0 0 0
2881 2 14.555249622313374 7.119029283634373 21.238676028272035 0 0 -1
2590 1 13.725826161173382 8.468778416595136 20.80912881197778 0 0 0
58 1 15.706472762922727 7.0990132665168435 22.428156292891245 0 0 -2
376 1 18.20984731713902 7.625626914145388 22.70802334334459 0 0 -1
3432 1 19.815977684063576 7.86452431168273 20.33417291967347 1 0 1
848 2 19.0776800539052 8.532548163571287 21.623839117143373 -1 0 -1
3271 2 4.735485746833794 9.676903678066806 19.838057260259074 1 0 0
1944 1 5.476773777599534 11.106158399061023 20.06164084340807 0 0 1
4580 1 3.5624160122531454 9.702322353814887 20.976539457635326 1 1 0