LAMMPS data file via write_data, version 2 Aug 2023, timestep = 5700001, units = metal

4608 atoms
2 atom types

0.25223479566775353 42.46776520432695 xlo xhi
0.33631306089084845 56.62368693910351 ylo yhi
0.16815653044542422 28.311843469551754 zlo zhi

Masses

1 15.999
2 28.0855

Atoms # atomic

2868 1 2.507657066814025 2.4877368614473254 2.5819600194378602 1 1 0
2570 2 4.221754945265644 11.534107293464361 12.460570936580543 1 0 0
4199 1 6.280082861806299 1.6985716447291808 1.9259709683587396 1 1 0
242 2 6.681367796752022 3.222217203554028 2.1094293341952737 0 0 0
199 2 5.738532568053319 0.5299108115166054 2.9317779944933364 0 0 1
2362 1 13.630522386071844 1.5599606033630158 1.8481330310190662 1 0 -1
1611 2 14.047438925637733 2.8442549035366915 0.9733695318102622 0 1 0
1097 1 16.864774242071864 2.0335867470627917 2.5611544793067154 0 0 1
2805 1 1.245947433650707 4.4525750976208744 1.068955771265046 0 0 0
2234 2 2.5805275803434533 3.4922784638533604 1.282201354336294 0 1 1
30 2 0.7248294598618985 5.858807890671045 0.4037581317945098 0 0 1
1881 1 3.854990151925757 4.501861009523201 1.1132971861233052 0 1 1
4153 2 16.973472685527458 0.5103996563454357 2.128323247646259 0 1 1
3681 1 6.261957695145407 3.947298175123481 0.7310698205707757 1 1 0
1416 1 12.823046331666774 5.423840584034038 2.5212230508037505 0 0 0
3225 1 14.874988034482904 3.8720167270180403 2.016132015311466 0 0 1
2119 2 14.34780465569863 5.456502398392324 2.070810886460996 0 0 0
2329 2 20.470053040433005 5.234529842693682 0.8292091806658679 0 0 0
3167 1 20.498513116842787 4.068235575106444 1.9860088696563276 0 0 0
4225 2 2.794027424056039 7.953244748909582 1.3196800478303419 1 1 1
445 1 2.76842726545364 7.272813666109883 2.829966967334622 0 0 0
1340 1 4.313886474369002 8.365385370541519 0.8974329048286365 0 1 1
1767 1 5.590588019027882 6.54429408785959 0.7134535246115035 0 0 1
813 1 7.426463800764625 7.736786977051821 0.5838859181474002 0 0 1
754 1 4.583900654469888 12.987694187990725 11.704938959919657 0 0 0
2373 1 8.90676246889959 8.191362231444081 2.7376221966753187 0 0 0
607 2 8.928444716196195 8.331329493161098 1.0844013101793486 0 0 1
1721 1 10.141701386794571 7.379451835841851 0.5140327485250877 0 1 0
3180 1 4.787086042097534 11.951579376545142 14.062015860128188 0 0 0
3663 1 14.637191062673908 5.840340928236879 0.5347423584035023 1 0 0
1463 1 16.897168967978065 6.996038849318713 0.6501736393984973 -1 1 1
979 1 16.22110901318829 8.439391670048048 2.2680232819538415 0 0 1
3008 2 18.35349479351435 7.6115337043755265 0.8856836703864547 0 0 0
672 1 19.1043200325236 6.150282256148031 0.66103539638685 0 0 0
1141 1 21.058951740542298 8.747296647456903 2.325793400573236 0 0 1
3595 1 18.81315450647364 7.842133059850266 2.4753578745294753 0 1 0
2300 1 0.4628921304307485 11.379815064217507 1.1459229040390073 0 1 1
2769 1 1.743336924529687 9.224923781491599 1.0561741795621082 1 0 0
19 1 6.036716102349048 9.6182558606676 0.7391714949704212 0 0 0
2672 2 5.9358167564221915 11.242020726363483 0.5442342232329174 0 0 0
2847 1 9.03268386840841 9.864518278429857 0.6162527875671475 0 0 0
1464 1 9.093110894577768 11.554279893786525 2.8244750152181295 0 0 1
555 2 9.008338347807141 11.432327445547223 1.1561012709852097 0 0 1
3237 1 14.864757799010077 9.884521247956474 0.8738286166659625 0 0 0
4002 1 17.52317698600411 9.075712225575092 0.8176275854052054 1 1 0
2281 2 16.373284475175613 9.987910956646234 1.577926963620207 0 1 1
1005 1 16.747836021351656 11.358493164522843 0.7722863243350567 0 0 1
1709 2 4.952932395076719 13.383329804311574 2.6109520522513034 0 1 0
4486 1 5.141591848146388 11.977873063342784 1.7977670256396798 1 1 1
4022 1 7.479593995158509 11.858643311257776 0.6940628358169512 1 1 1
4268 1 10.210939023345997 12.271543568976993 0.4450143064328956 0 0 0
3971 1 12.606228800266868 12.307580304467661 1.7259300515637277 1 1 0
2070 2 11.744117896875697 12.870538347483695 0.44121371182033287 0 1 0
794 2 17.804774310994596 12.635130048848573 0.7407080234623329 0 0 1
516 1 18.593419446507816 12.66288876679838 2.137596128038858 0 0 0
4454 1 10.81507530798503 14.009093169908134 12.600546962074269 1 0 0
2262 2 2.6274238569997928 0.8795345552035094 2.933082218062956 0 1 1
2314 1 2.219334061804995 0.9129164522437263 4.526958346698017 1 0 2
1262 1 4.427256405057639 0.560363074726209 5.7808562785028155 0 1 0
1432 1 6.186717852937831 1.1326901594665286 4.391151070598859 1 1 1
704 2 5.628004299733244 1.799311396773743 5.817838195233287 0 0 1
2081 1 13.402787663978696 1.694609228569637 5.662337239024486 0 0 0
2611 1 15.272859274389058 2.942265201062713 4.532278926630908 0 0 0
3159 1 18.06396557462844 0.7315130881792029 5.515409320312885 1 0 1
464 2 19.577324994536465 1.0991492317637852 4.918108818077637 0 0 0
1917 1 19.66093108496823 2.4538756422951726 3.9514000522056585 -1 1 1
2467 1 0.8604058219743347 5.422973997597628 3.7626458190227026 1 0 0
3624 1 4.930452870002704 3.2018479162061353 5.440688097805837 1 1 -1
3732 1 3.251759350126672 4.964367555284066 4.212846585539932 1 1 0
198 2 4.744652368943886 4.422492439245731 4.39180880492575 0 0 1
4404 1 5.473397774339488 3.9779850922588538 2.990565544366954 1 1 1
3621 1 5.397760153842073 5.775378738753117 5.045195104627069 1 1 0
3981 1 8.140071589215063 3.489889685458907 2.7599600517123726 1 1 0
819 2 8.978876148281428 4.332394768408476 3.920158829106237 0 0 1
1646 1 10.532751581496845 4.424808125600718 3.4891910432607007 0 1 1
3903 1 8.815711174675103 3.4082699615321923 5.311843687496857 1 0 0
4358 1 8.223638416421325 5.740905124641735 4.039593917419186 1 1 0
2718 2 11.930688750379439 5.183370300991428 3.829426595659911 1 0 0
1843 1 12.685309737034355 3.9843653122575624 4.655800515840697 0 1 1
2356 2 13.916608786936537 3.2862550054168946 5.536443450942832 0 0 0
457 2 16.039044151717825 3.284503028400866 3.117863902860751 0 0 1
2557 1 17.348401322044253 4.286520642746303 3.5296718536117955 0 0 0
510 2 18.292199587839807 5.336852342022238 4.415872483817302 0 0 0
1419 2 20.549473161417733 3.72040984061173 3.55984544549312 0 1 1
3619 1 19.970385199789362 5.192784968547002 4.213185544149562 0 1 0
2931 2 2.2658775577926806 6.225605225753364 3.993091027708133 1 0 0
641 1 2.1671906644969505 7.284312410551952 5.257952788353934 -1 0 1
856 1 4.279662022815314 8.307133989911662 5.151076554157628 0 0 0
486 2 5.634429378603486 7.376866156081309 5.24735072978488 0 0 0
179 1 6.913512939729362 7.834911815395854 4.460866647116027 0 0 0
1444 2 8.420203671276509 7.383335289557484 4.059668999159865 0 1 1
4602 1 9.525352501736682 7.71293946957282 5.222146710692049 1 1 2
698 2 11.01818925665841 7.404251170413014 5.696590424901087 0 0 1
232 1 11.733254695866817 6.675667242666226 4.4734531483804965 0 0 0
860 1 15.083669756303058 6.3833233362689255 3.213832264006144 0 0 1
1835 1 15.393545581228798 8.49066063374167 4.742523925114909 -1 1 1
2213 2 16.168590650504115 7.517724508344074 3.624130371498549 0 1 1
1503 1 17.598162491035513 6.791214247757063 4.077563548375792 1 1 0
3774 2 21.05290281257445 6.4014084177041335 4.863167979542909 0 1 1
2109 1 20.4863986320555 7.884154584137717 4.546130274124432 0 1 1
2104 1 2.66603843409446 10.295799210449834 5.234272165986987 0 1 -1
97 2 2.8378030006555126 8.6804298602052 5.826396936644755 0 0 0
2698 1 8.490185383071738 11.295437563830882 5.188866072034792 1 0 1
1470 2 15.69060810647545 11.408293983612532 4.379881048960369 0 1 0
3109 1 15.581709100716566 10.361798923008044 5.703840522316319 0 0 0
2781 1 14.195481724401832 11.429056594693296 3.68262352378187 1 0 1
2409 1 16.339048821946296 10.489112826079403 3.1182601329575506 0 0 0
2830 1 19.047421146056696 10.162641029149782 3.628084418433486 0 0 0
1682 2 19.845155551513603 8.772867674128744 3.37550635157745 0 1 0
1698 1 1.6105723742111133 13.151478771902868 4.812252338182706 0 1 0
2727 1 5.556510860421304 13.524951111273984 4.1066552365665725 1 0 1
2476 2 9.729856289963564 12.08334519212741 4.326743515008642 0 0 0
1269 1 9.129782275367955 13.522033662683434 3.7931426670729564 0 1 0
2087 1 10.323237621772122 12.47761537039124 5.852994443958183 0 1 0
1066 1 11.333797513333723 11.681566663443883 3.922841439614491 0 0 0
2815 2 12.800882993350564 12.27150891722444 3.362840926210488 0 0 -1
1860 1 12.876327086679488 13.938087176038955 3.6420810319764723 0 1 0
636 1 15.271981434971032 13.038427545438434 4.587441723781025 -1 0 0
1631 1 17.31969311714019 11.926914763273857 4.1483227719203235 0 0 0
2681 1 19.351228277124797 12.154166835285727 5.0347162794275295 0 0 0
441 1 20.457485747253433 12.352654137449884 3.2104442029400744 0 0 -1
3387 2 18.88071861294841 11.760816209455305 3.522409872839471 1 0 0
1710 2 2.8002759886990565 0.828339670970426 6.058531764107459 0 1 0
2110 1 3.012787660068039 2.2450999912555214 6.899510672935844 0 1 1
2754 1 6.916401290124259 2.0733134651348664 6.719364486359282 1 0 0
319 2 8.401150396789896 2.845330545264655 6.865486051800397 0 0 0
621 1 9.517358660390439 1.7477142951481666 7.295068697032979 0 0 1
2809 2 10.349904263024207 1.0038260141336552 8.489935091385437 1 0 0
2797 1 13.631312607228498 3.0761669274542975 7.198799008187748 0 0 0
660 1 20.815296995529582 1.62605355350072 5.864745376509368 -1 0 1
2078 1 19.056094649473135 13.678694220132867 12.362657763978465 0 1 1
2596 2 2.6915540284954846 3.346207429549126 8.025879822197492 0 0 -1
4163 1 1.1902211857657026 3.636207666557963 8.561570389179769 1 1 1
4341 1 8.185753238199647 4.12009540814171 7.930469626514142 1 1 1
222 2 12.531673715177455 3.3445333995183355 8.41278445046686 0 0 0
3615 1 14.613324561835228 4.712183531157359 6.244241301112813 0 1 0
2432 2 14.90115872447787 5.691755384320882 7.531743022248212 0 0 0
81 1 14.056169247101506 5.745925772672188 8.912746732885985 -1 0 1
778 1 18.475941316282473 5.170080920314674 6.092883814976042 0 0 2
2376 1 16.37759588226362 5.37753703272459 8.122314299857255 0 0 0
589 1 20.3058309942224 3.812144285407935 7.516722175405087 0 0 0
3078 2 19.58081454782509 5.278836278343834 7.30330322684113 0 0 1
406 1 2.6942392091508554 8.650512100981457 7.452885300997355 0 0 0
1942 1 6.146642102965474 7.464696753470912 6.771588191218718 0 0 0
4372 2 7.056290227423313 8.33664796604422 7.81332876501281 1 1 0
1003 1 7.575913377951758 6.694154934730594 7.935918947099001 0 0 0
2730 1 10.957178029272512 6.341329102134552 6.914757834247339 1 0 1
3700 2 11.280124894336446 6.191047019666684 8.50333563971706 0 1 0
1907 1 11.799450561558423 8.672499259089754 6.385934903402564 0 1 1
3803 1 14.687758444486075 7.229065223881197 6.855079043865654 0 1 0
1534 1 20.60325397691004 6.178768611118447 6.408271430018242 0 1 0
2678 1 20.988022003113116 8.130944724149508 8.368125774337145 1 0 0
2913 1 18.99619582521141 6.17555222482044 8.653476336645044 0 0 1
251 1 0.7935210671468003 11.103846036754152 5.842767542230917 0 0 0
3023 1 7.189225099466486 9.697774091284595 6.841452692689491 0 0 1
1349 2 7.521875739555133 11.236330681337536 6.54161422072049 0 0 -1
1088 2 12.452339382408368 9.123872418059845 7.769186823563304 0 0 1
2422 1 12.023545571773951 10.592552886977995 8.259178704590154 0 0 0
673 2 15.217331280916442 8.774795473866963 6.388850452603707 -1 0 0
134 1 14.0348140169803 9.3186351995626 7.387204898505873 0 0 -1
2032 1 16.102618208313174 11.266632318512029 8.401899284649517 0 1 1
1502 1 16.52262234369308 8.944790905938172 7.341324718603219 0 1 0
2839 2 17.244863177778413 10.125027898092453 8.128090990189236 0 0 0
2411 1 18.528098584686035 10.55057769693886 7.1251711486307405 0 0 1
2217 1 20.563955746477088 10.365791265345818 6.822895404227549 -1 1 0
4350 2 2.331150021699345 11.864808377761852 5.636880482287644 1 0 0
333 1 1.9017932489929146 12.287301401104491 7.231536457112548 0 0 1
392 2 5.223558940431175 13.317393198831162 5.673277463145168 0 0 0
4146 1 3.9233954826264736 12.22197558410256 5.681423408467667 0 1 1
2801 1 6.090324312524357 12.01808378581304 6.242124205841228 1 0 0
2265 1 6.402181161025764 13.994683905903065 6.629466258265005 0 1 0
521 1 8.364788127201345 11.827340127902755 7.827773493938236 0 0 0
971 1 9.245472854978187 14.189228388579936 7.326077103583004 0 0 0
3052 2 10.727634899543888 13.530175039260005 7.022320934345464 0 0 0
2011 1 10.794387266453484 12.451501999988293 8.447797902555234 0 1 1
1379 1 11.92907042204809 14.257981399464212 7.916816157867453 0 0 0
608 2 10.91379180122148 12.513717497346525 13.326373451596476 0 0 0
277 1 13.80527076710465 12.9689472335348 8.713437007123197 0 0 0
4389 1 0.3533753414174001 7.3309785440200095 11.26196782113714 1 1 0
79 2 17.387700584457605 13.924789100554758 7.494928951547671 0 0 0
1885 1 18.47679140159889 12.596468511213565 7.414789253773587 -1 1 1
1047 1 16.33301129070524 13.649707200449509 8.712317842152242 0 0 -1
1922 2 19.572670580665402 11.719701978775104 6.552551075782073 0 0 0
2613 1 21.051026268033695 12.38620129483017 7.052350698638629 0 0 0
1497 1 0.7888764741094865 1.8284423569084276 10.382666854556986 0 1 0
1965 1 7.573915204280378 2.631709717266517 10.897681475409955 0 1 0
1039 2 8.51453759080899 1.287362393239679 10.990859231928829 0 0 1
1245 1 8.971603669557718 1.051193091998147 9.458457648709514 0 1 0
3498 1 11.530837428282847 2.152028305477212 8.846443911692866 0 0 0
990 2 18.33474178848574 0.6260547392428617 11.107546903232171 0 0 0
309 1 19.456862854040388 1.2833944701615247 10.09212563259615 0 0 -1
4539 2 21.012840581960372 1.8029390270951082 9.897502722110808 1 1 1
1459 1 3.897971727169994 3.7775316564368584 9.060044165959226 0 1 0
2840 2 4.279242833716928 4.8534622700519385 10.307726068557944 1 0 0
1858 1 5.5490947092049865 4.173851573022023 11.172715731691271 0 1 1
2124 1 7.651546428514026 5.236826019479733 10.274358352343274 0 1 0
3313 2 7.173188078025799 4.090618066617833 11.336211020409284 0 0 0
2311 2 8.331675308110588 5.456897185368695 8.761524851093519 0 0 0
2633 1 9.796714493923641 6.071787061820165 9.133027804314233 0 0 0
707 1 12.242215049188102 4.870085823355875 8.78376640889364 0 0 1
2551 2 13.73661991408754 5.629961953529494 10.55655388803647 1 0 0
4604 1 13.637257325420903 4.080641760685388 11.070324852068696 1 1 0
2347 1 17.585020745230043 4.4684919108383365 10.278611464760607 0 0 0
1711 2 17.454674196480465 5.790994673399776 9.279802224001774 0 1 0
3565 1 20.87427505505779 3.4545779549655813 9.999744688152463 0 0 0
243 2 20.998486985251276 4.805001110835057 11.026641357277807 0 0 0
270 2 8.496804881647343 4.013043406314306 14.20907287202242 0 0 0
834 1 4.7447671510633995 6.266490312386157 9.721001677717108 0 0 1
2066 2 4.830262192158329 7.8861634157246225 9.94644081711296 0 1 0
2389 1 3.319137301933425 8.428856402074045 9.886981441906984 0 0 0
3428 1 5.796100318725815 8.536533305779084 8.825133834915222 1 0 1
514 1 10.256145078841902 8.146902924949785 10.370136545843073 0 0 1
3256 1 8.373947858301722 8.664911104060838 8.767403445433205 0 0 1
2564 1 11.9004734612461 7.766268081268798 8.66169600956209 0 0 -2
2533 1 12.26853740786099 6.364663742189587 10.685046227736132 1 0 0
8 2 11.366389665623299 7.57826036583908 11.35300567740919 0 0 0
4583 1 14.68264495413283 6.781600486259894 11.271030447402135 0 1 0
1323 2 16.010582090370754 7.720574418563892 11.19826929964944 0 1 0
1510 1 16.968583970289874 7.1559588075846845 10.001243223646542 0 1 0
3279 1 20.965898573362068 6.318870974393531 10.352270127855867 0 0 1
3030 2 20.05242634018518 7.365739144841638 9.398466413536553 0 0 1
1053 1 19.454557613777283 8.572050734638983 10.44220341961203 0 0 0
2615 1 0.7237408897407638 8.865051737773717 9.43523944951524 1 0 0
4016 2 2.2632276857608487 9.249299465278348 8.88304482836466 1 1 0
2132 1 2.8079913179094964 10.789267874508537 9.193377288941456 1 0 1
496 1 7.6971348438467375 8.796009373608706 11.325689885498901 1 0 0
3400 1 9.365007897738074 10.777184652601234 10.16555471583343 1 0 1
917 2 8.922356699210582 9.144278007719786 10.222091274828365 0 0 0
3523 1 12.418104128224352 10.83171654924624 10.305064898601618 0 0 0
1821 1 15.807453209339286 9.289582232029227 11.229610348447723 -1 0 1
2946 1 18.04441862703346 9.86861745323149 9.540858160997116 -1 0 0
2910 2 18.939265882776937 10.191142388434107 10.959450119721446 0 0 0
442 1 19.939246865980575 11.624012898614613 11.065496732095056 0 0 0
547 1 1.5205767670286605 13.269388985331164 9.723493142611066 0 0 0
103 2 2.4578040240023626 12.312760602313737 8.773435687235297 0 0 0
2637 1 3.7034039022036858 13.442446737924515 8.578367679170341 1 0 1
1874 2 0.3196650240058095 7.87540844358713 12.85194987679757 0 1 1
551 1 8.461476508443507 13.354241438111169 9.898210313887578 0 0 -1
1086 2 9.285586169963906 12.073863597560868 9.186069394495169 0 0 0
3176 2 12.350627876243363 12.062662469277388 9.140483342108654 0 0 0
729 1 11.925701884264848 12.956900122653314 10.483354079126936 0 0 0
52 2 11.471584829254159 14.340018013504018 11.092723533187515 0 0 -1
1724 1 15.428035744851867 11.977719728898524 10.770743306113564 0 1 0
3488 2 15.354151728176314 12.48811810836136 9.23180427302305 0 0 -1
2854 1 20.093959002265667 13.84284359989596 9.816398607808502 0 0 1
2358 2 20.287391948967826 13.333981002872127 11.357998120017836 0 0 -1
117 1 2.4037906551737382 0.8182112339045094 12.511249779065608 0 0 0
2740 2 0.9144805926485579 1.2019663146915278 11.917918539432083 1 0 0
2107 1 0.36920338210729264 2.527700115259312 12.70020338561008 0 1 0
2508 1 9.492300374420534 2.703097441525499 14.190214766110833 1 0 -1
909 1 9.863313939635349 1.3491339022942401 11.932041057461307 0 1 1
2522 2 10.593673177211384 1.8721039306683844 13.273519820716801 0 0 0
789 1 11.824831546255266 2.891371745735822 12.838343440727668 0 1 0
937 2 13.353270279710083 2.9031833609761604 12.241720607074978 0 1 0
1793 1 11.154622574086595 0.606149948204888 14.09919903343236 0 0 -1
523 1 13.626044192045008 1.3217544082652433 11.667272350720356 0 0 1
1629 1 14.166500233805055 3.027220443252721 13.644047152546921 0 1 0
3470 1 18.127673506719077 2.1347212621684943 11.76218658271881 0 0 -1
785 1 21.112024380867545 3.3772484117233144 14.138306694409593 0 0 0
1834 1 1.2262269783458315 4.969987774177958 13.15834462710749 0 0 0
390 2 2.534791023265055 5.814593392074773 12.863270577378232 0 0 -1
9 1 3.0807910038317234 5.368983839456117 11.346903652054438 0 0 0
4283 1 3.7359621832900833 5.616316701318917 13.954233726077952 1 1 0
2829 1 7.691072492456908 4.3725666893126665 12.866153584736294 1 0 0
3445 1 16.96929160107359 14.044492428430582 0.424855678853413 0 0 1
2581 1 6.999475149275328 14.16648748335564 11.256094201132406 0 0 0
4576 1 15.141634511028702 5.544752350824933 13.534592912022143 1 1 1
1010 2 18.16744923600891 3.745867584345231 11.651320103174514 0 0 0
1488 1 17.441355144967794 4.411610102593771 12.980792171337008 0 0 0
246 2 16.781816153026114 5.82665859690992 13.56584630074946 0 0 -1
897 1 19.625232983233275 4.419432003175757 11.849277436285421 -1 0 1
3184 1 1.8135453487153117 7.288281581279681 12.9582010235111 0 0 -1
4416 1 0.7597206706500599 12.08401437181899 13.575091527304554 0 1 0
1906 1 5.574031041873498 8.150844448607106 11.365720205329291 0 0 1
394 1 5.790402513092295 8.657950839443934 13.677767841710471 0 0 1
2953 2 10.748335257184593 6.250158036571945 14.133170151084197 0 0 0
3478 1 10.723138719300623 6.704388039817119 12.589879726903852 0 0 0
2530 1 16.795326165451435 7.0817969953442095 12.524287172768265 0 0 0
2266 1 2.6229812795588625 11.090027440478874 12.098303940117216 0 1 0
2094 2 0.9712863724027678 10.958253592752797 12.432944210806532 0 1 0
1355 1 0.7655436103056068 9.447325786260246 13.022166834760277 0 0 0
1505 1 5.47471806551064 10.590385555702824 12.02022574072433 0 1 0
4012 2 6.426162720035804 9.317886569282546 12.29696129689853 1 1 1
4402 1 7.758411727096345 9.927015928591995 13.06567120011041 1 1 1
753 1 9.56129959389546 11.693666610731334 13.284517650294617 -1 0 -1
218 2 5.78788234428587 8.091115693740695 0.2159464631968643 0 0 1
691 1 12.099760902386926 11.550540440439391 12.720843142666762 0 0 0
710 1 12.144020698164914 8.868156380310012 11.985463495155576 0 0 0
2309 2 12.648823184165881 10.353954587413574 11.823406933913903 0 0 0
681 1 15.643133782259975 11.197862596380396 13.477381111393127 0 0 -1
459 2 15.800152384798304 10.79959160072691 11.882375268155496 0 0 0
1096 1 14.268229616548098 10.275444565150064 12.312527619894757 0 0 0
3381 1 17.45311084306555 10.551966315890905 11.831020549888889 1 0 0
3674 2 20.267278148487232 9.511595730312255 13.664407317748703 0 1 0
359 1 19.53276155903638 9.427691560717655 12.28980759276316 0 0 0
3660 1 2.6908108882226656 2.2912746921950617 0.21174442917739422 1 1 0
4428 1 16.8029087744287 14.332186340063435 6.046410239207667 1 0 0
1888 1 12.636184727856474 8.301886799123263 0.20407965698878625 0 1 0
2612 1 12.70147469067182 3.559416825289518 0.46675442840426196 0 0 1
4447 2 8.501393792388283 10.849291149683571 14.17053940569461 1 0 1
2517 1 2.0493127224664356 6.747925286057461 0.5257082086526434 1 0 0
476 1 11.82674038039207 14.147299931119456 5.86849033755458 0 0 1
3556 2 5.1103228946230725 5.046718935016085 0.2658263779543546 1 1 0
546 1 5.624900971314239 1.8965894003204218 14.971277538578466 0 0 0
4218 1 13.809497832815758 0.8539458590715704 15.183442175394303 0 1 1
2071 2 14.718053422046985 2.2127503596734437 14.993893070414877 0 1 1
552 1 14.434013428710443 3.0303386510691963 16.38300932402393 0 0 -1
1440 1 16.288013313857945 2.0262331748856024 14.867984929785184 0 1 0
3989 2 17.666734266569982 1.6001995888594411 15.637210740942509 1 1 -1
3204 1 18.909161905443508 2.500504838848164 15.21330633111109 1 0 0
4565 2 20.415617854880058 2.9541858550644577 15.55537791491194 1 1 0
1908 1 2.838438845694879 5.948908655648494 16.15604420828414 0 1 1
2784 1 5.082388982256701 4.436229116778177 15.999630798343292 1 0 -1
3870 2 4.316329971440953 5.749901808414655 15.431334391547189 1 0 0
580 2 6.096466995496615 3.1280398644072958 15.871095374795974 0 0 0
397 1 7.424522697259535 3.8495675336443598 15.418087836744776 0 0 0
1007 1 9.58400188664387 5.177503296233648 14.595582419867105 0 0 0
1284 1 14.33981761362667 5.475028004626089 15.982812627209382 0 1 0
3401 1 20.34581898512049 4.226662891387365 16.536817625915347 0 0 0
2206 1 2.204774460244833 8.652231930952338 16.397590304082293 0 1 0
3343 2 2.0295689062486053 7.0653409976881045 17.00455437595268 1 0 0
3087 1 0.3708076805808359 7.2597506987935905 16.580636963038394 1 0 0
500 1 5.036554267397769 7.2180817465861296 15.752339754070716 0 0 -1
676 2 6.045703245097555 8.376239615916662 15.321355111651364 0 0 0
407 1 7.576166396257432 7.9368731254769544 15.445707604862445 0 0 0
997 1 10.367250059939872 7.515654517497162 15.107211004665633 0 0 0
2719 2 9.115297830389 8.296551926727211 15.860817467376144 1 0 -1
487 2 13.889347116400913 5.916168563733398 14.447651972901546 0 0 0
692 1 14.156832763773423 7.5073681723723675 14.724634485816724 0 0 1
3102 2 14.75674750227821 8.480206386205575 15.898043430301165 0 0 1
449 1 16.346989410620026 8.310221143282877 16.37404016901469 0 0 0
2758 1 17.36819646827131 6.191132990429043 15.08890166442115 0 0 1
938 2 17.56256488074304 7.261460299840484 16.304290174113532 0 0 0
2677 1 18.92499152228116 8.081954167368572 16.23283436197999 0 0 0
3628 2 20.564614822617507 8.00334909290913 16.2316339324504 0 1 0
64 1 20.61088349178519 8.220904821701058 14.581666889590734 -1 0 0
3259 1 20.681313104555883 6.726879161130623 17.23085273234993 0 0 0
840 1 1.7237551364990216 11.209597074803826 15.588345617938682 1 0 0
677 2 2.0574842048875532 10.184344955559173 16.802891279140226 0 0 0
4397 2 5.098466246501055 10.894876502022553 17.184509251656984 1 1 0
3521 1 5.800946138330485 9.757131580466913 16.22540481916748 1 0 -1
3444 1 9.143565251379266 9.907498490217973 15.370184364618959 1 0 1
3379 1 14.442782739449907 10.029586985953792 15.584451217259982 0 0 0
3150 2 14.740811086220308 11.456250956176516 14.837453593323247 0 0 1
2817 1 17.678365928035834 11.493531318237734 16.296975367310743 0 0 0
3243 2 19.024296672532262 10.607535965940205 16.37595639206397 0 0 1
2998 1 19.190297348574237 9.910209097829133 14.81885170753372 0 0 0
3658 1 20.429594418533664 11.43031327217593 16.267072173778296 0 0 -1
3915 2 1.0155115111485569 12.563651512133113 15.061715759817773 1 1 1
3322 1 2.2633410120188477 13.665195815854815 15.104952783541716 1 0 2
2100 1 5.479849991247268 12.429947455299963 16.674334251685067 0 1 1
2870 1 7.491125854014192 11.812657913620773 14.981863388548419 1 0 -1
1662 2 6.014687734060514 12.585817764069372 15.073757540037043 0 1 0
4506 1 6.394937394034614 14.15175637473424 14.793654389377076 1 0 1
3157 1 11.162275022248256 12.878063195258873 14.89126236274425 1 0 0
871 2 12.374231970328394 13.153533336527175 15.986302788871178 0 0 0
2327 1 13.360221354632543 12.290918607449077 14.96915364469817 0 0 -1
4024 1 15.72393141359315 12.570804272367553 15.532942731326141 1 1 0
2307 2 17.19867774130986 12.986564112025054 16.011552818635018 0 0 0
1714 1 18.09566777220242 13.575082664030845 14.850200909475756 0 1 0
2985 1 4.495067997844372 1.6458506629249232 19.094136852068758 1 0 1
4192 1 11.835036139265418 0.4676772691919946 16.516875232048356 0 1 0
1443 2 6.015834266633758 2.1790480544459827 19.056388731052905 0 1 0
2509 1 7.018274563811895 0.8849014427147961 18.63080608399156 0 0 -1
1914 1 6.450951230277605 2.650220294180705 17.433801944233466 0 1 1
4165 1 11.101690559981355 1.6871006586822401 18.78455610165264 0 1 0
748 2 12.114899354698972 2.240742439100175 19.933590281960463 0 0 0
3810 1 13.565215328908746 1.5570188732977392 19.61266412122462 0 1 -1
2061 1 15.026596809126131 12.454343755076136 25.78542852871793 0 1 0
4262 1 17.54360509867122 1.7758251374736858 17.190121566079746 0 0 0
2044 2 17.669838537269225 0.9208526509376598 18.583322612364697 0 1 0
3407 1 18.53043429657927 1.8427632690975095 19.664299238946775 0 0 1
1719 1 0.7899174927867364 4.442323598226576 20.09293856263499 0 1 -1
2367 1 5.197310779976368 5.887884041985739 19.258570347961715 1 0 -1
1877 2 6.6820021534169145 5.3020687047632835 19.466448045959538 0 1 0
2965 1 6.4901929223264725 3.661997118142752 19.620904709346426 1 0 0
2225 1 7.860577291352959 5.906167147537712 18.477569039469458 0 1 0
306 1 10.515328323792588 5.76697528974686 18.4025934043609 0 0 0
3979 1 12.79045689424063 4.5387634911311645 17.683817060018576 1 1 -1
2305 2 11.878634545440095 5.166848263962663 18.95416158523964 0 0 0
2528 2 14.31242097725871 4.428246278521485 17.15934670676731 0 0 0
809 1 15.551102391882898 4.594789022480522 18.230784922387265 0 0 0
1684 2 16.652678442576406 5.680315418394575 18.76866955905151 0 1 0
2935 2 21.245824195601173 5.267294809620052 17.3701163589515 0 0 0
3049 2 0.5543359637869996 5.916701634600858 19.504635704233543 0 0 1
3767 1 1.151381382582677 6.104925627568954 18.04620920735009 1 1 -1
882 1 3.084497182595203 7.501360511539178 18.25216170805877 0 0 0
2909 2 4.132089114787359 7.184023574791305 19.51565746914347 1 0 0
2181 1 5.4313809460782005 8.177115120362814 19.406675200366955 1 1 1
2013 1 9.213181539163008 7.964020407544866 17.448517884291498 0 1 0
1254 2 9.290137763921068 6.784740923031273 18.54198240873972 0 1 0
2075 1 9.305966589289504 7.69474074831278 19.92282712002381 0 1 1
4378 1 12.812655612114755 6.470990136174339 19.285568513950274 0 1 0
4256 2 13.388183178357428 7.901897439688984 18.67426543262897 0 1 0
4379 1 13.736628240674355 7.876529821558532 17.08513796986753 0 1 0
3348 1 17.633436366435895 6.356142619665096 17.673184904442614 0 0 0
229 1 17.31847732241874 8.627791818842953 19.806121122126967 0 0 0
615 1 1.0741360303829433 10.515889208621173 18.05943418432593 0 0 1
2541 1 3.4590071793707815 10.772011262030356 17.33537145588079 1 0 0
2941 1 5.648635262369699 10.691971411740361 18.69499381046574 0 0 0
4509 1 7.677120322648592 9.67745152963541 19.874945571890386 1 0 1
963 2 6.035597242310088 9.619696805478002 19.884401395627876 0 0 0
2374 1 10.390676685156809 10.341771310948422 19.490230379690296 0 0 -2
3067 1 12.331951991505072 9.044808523829529 19.084747280395547 0 0 0
606 2 18.249092500375923 9.852231971499089 19.35994254103546 -1 0 1
2952 1 17.62053706565526 11.39303009089801 19.474889570125775 0 0 0
2276 1 18.758185689388295 9.777170092726612 17.724700981620558 0 1 1
1153 2 5.45691782834244 13.74137873474363 17.824809186693805 0 0 -1
2937 1 6.112147041407168 13.143425643304532 19.199572276171253 1 0 0
1527 1 8.093510637842574 12.304495980650373 19.68361544981937 0 1 -1
2588 1 11.963451287853278 12.685813436477556 17.50919671424022 0 0 0
2545 2 11.880585022475435 13.148514198316976 19.065810742143647 0 0 -1
2106 1 13.229722702658613 13.969956620923671 19.609778157627204 0 1 1
1506 1 16.050622416973006 13.668346862929722 19.746453861108257 0 1 0
95 1 17.335428139417417 13.862124853729647 17.351030438114655 0 0 0
4464 1 20.91699189581541 13.872470551403937 17.202202688489507 0 0 1
3032 2 1.6625505976784272 0.5634766265102127 21.321261823760167 1 1 -1
3569 1 0.7708301921446302 1.9488250293192706 21.14698463826263 0 1 -1
3620 1 3.1108339336465316 0.5761633473309642 22.13398550609687 1 1 -1
3572 1 6.800604415906903 1.911021779619615 20.59291819214588 0 1 0
481 2 6.841139772113176 0.9326864644058435 21.977247499549797 0 0 0
2697 1 11.490435950510985 1.7721616605879669 21.410172968716346 1 0 -1
1398 2 14.906971092738054 0.7482944448772939 20.122940893615457 0 1 -1
1848 1 15.271168151271345 2.136298202465851 20.920375301037353 0 1 -1
3073 2 15.776632291028694 2.83955981502979 22.230302051696654 0 0 -1
4571 1 21.160713964642206 1.9510709507359876 16.60059178477605 0 1 0
409 2 18.67089137012584 2.8802815584411054 20.970653199168204 0 0 0
116 1 19.486712560238036 1.8618559859914605 22.03429367719105 -1 0 -1
2427 2 6.759624786747648 5.910831873184589 22.539825714152876 0 0 -1
1919 1 12.044766003394646 3.853299672634474 19.909480708063768 0 1 0
4020 1 14.815716365196966 4.175370491949195 22.47307267157931 0 1 0
1058 2 14.668042748233193 5.838159751051224 22.6689640719634 0 0 0
1789 1 17.36034400309775 3.2271175280436664 21.86407576541525 0 1 0
784 1 19.518381098653986 4.4293608539199525 20.886771470925993 -1 0 0
3126 2 20.344481160442058 5.7564084775356354 21.536020915763324 0 0 -1