LAMMPS data file via write_data, version 2 Aug 2023, timestep = 5700001, units = metal

4608 atoms
2 atom types

0.2684786081574053 42.45152139183779 xlo xhi
0.35797147754439607 56.60202852245079 ylo yhi
0.17898573877219803 28.301014261225394 zlo zhi

Masses

1 15.999
2 28.0855

Atoms # atomic

600 1 0.5334159633763517 0.6835939325667071 0.4153420393826802 0 0 1
3662 1 0.44715282190295264 1.3178854357223961 2.8527286972493977 1 1 0
1714 1 5.221319926169536 0.8960889466569572 0.9914425403124925 1 1 1
4502 1 7.096668617770261 2.8276679686585933 1.133488950603375 1 1 2
767 1 15.753353166060638 13.930486743429732 13.697943802154946 0 0 1
875 1 10.88694459897367 2.737473240434879 0.944005737314192 0 0 1
1617 1 12.983384330614028 1.043444116901235 1.2703729707165383 0 1 0
3365 2 13.408727289537984 0.5750035237645426 2.785426873462818 1 0 1
2081 1 20.241509904358562 3.278026946906715 2.372906562729153 0 1 1
966 2 2.6423917233012997 5.682009446390014 1.5425978146094068 0 0 1
615 1 2.381568100139667 4.547283570014941 0.3548597851549759 0 0 -1
1057 2 7.661611803648889 3.158466008989007 2.6615969777237867 0 0 1
3596 1 9.12174006257007 3.877998817069831 2.562977460813782 0 1 1
1995 2 10.512584313319604 4.063855868409355 1.766923368773799 0 0 1
2424 1 10.214303481380684 5.528988893748488 1.0763222010187454 0 0 0
910 1 11.646573998107451 4.186197060274832 2.882811972140766 0 0 1
1484 1 16.5229296008097 4.755781265150103 1.616349795952125 0 1 1
1060 2 17.51169147354823 5.322486462952232 0.4770241380270943 0 0 1
168 1 19.157192440058637 5.367855378205544 0.9672843331064804 0 0 0
3019 1 9.326577695822833 7.894349698429142 0.3621815132799052 0 0 0
406 1 1.3826830057920356 6.7813712469310445 1.4662964860135972 0 0 1
2539 1 4.07218374668265 6.447257377803005 1.522331111964908 1 0 0
700 2 5.160830546687117 7.429576260348996 2.166781627642958 0 0 1
4215 1 5.846298816063561 8.205015346815607 0.9030042835866425 1 1 0
437 2 10.147552709566684 7.111301199383588 1.4676894169342194 0 0 0
261 1 9.242602126260602 7.1737712887226275 2.861350677509774 0 0 0
2813 2 11.938266690275483 13.843931285552298 12.573328401926519 1 0 0
2974 1 11.66541318551343 7.609947674591421 1.6976744146903868 0 0 1
1503 1 14.136665971502843 8.049487442769165 2.371809930990339 0 1 0
2326 1 16.076143864895485 6.502447070579206 3.325747074867949 1 0 0
4060 2 20.424869530353643 6.3188274735929495 1.5185347370795927 0 0 1
2949 1 20.881287824027872 6.282070938434225 3.0810711074106236 0 0 0
72 1 21.168981772594513 7.3928430043827875 0.5072024049668351 0 0 0
3320 2 0.9974827205469374 10.848718657459717 2.5593073553938233 1 0 1
3384 1 2.5798621520189338 11.252929530104353 2.191671283112272 1 0 1
3695 1 0.9990298697172835 9.178987663870192 2.347555099341611 1 1 1
1959 1 7.690554858890215 9.976924451087967 1.1904915552841882 0 0 0
621 1 6.046535744663948 11.081542833526237 0.553568183332898 0 0 2
2595 2 8.60303705200758 11.174961563601332 2.005851381863069 1 0 0
880 1 9.725830949474194 10.446916693439205 3.1214400655347827 0 0 1
2499 2 12.798544651245306 8.85441830892054 1.7516868673275834 1 0 -1
4601 1 13.281566323331466 9.699765916794766 0.4412347735734666 1 1 1
755 1 12.404671451248563 10.04557126081792 2.8409809102596295 0 0 1
754 1 16.244149919191138 11.062783892629925 2.6161136397243596 0 0 1
2006 1 20.353176008504725 11.272703246416189 0.6951457077397389 0 0 0
3402 1 7.202196065899234 14.365742551984102 12.450379885965699 1 0 1
3870 2 3.8215860203036662 12.1450713707542 2.6340881902063766 1 0 0
21 1 4.750267111735111 12.951024754583134 1.570760670840009 1 0 0
2151 1 7.732540458767296 12.182465351912997 2.9126786665012356 0 1 1
999 1 11.430453873455104 12.381992924354089 12.986640859393855 1 0 0
3357 1 9.269396450391627 12.152549482969453 0.7925964828821856 1 0 1
2375 1 13.01409493911021 12.461932592647742 0.570523768274988 0 0 0
2149 1 13.266310746722537 13.387857828603737 2.9529036984049357 0 0 1
4351 2 13.44800490807978 13.806762140422789 1.3446617058606363 1 0 1
3003 2 16.591671782209602 11.695198101117798 1.1229979169164532 0 0 0
1188 1 16.996619927597695 13.255913644650837 1.5335423904101504 0 0 0
3649 2 20.775890000008385 12.202173342844562 2.0106216851206993 0 0 -1
977 1 19.535609205931227 12.882401667366933 2.800855496897997 -1 0 0
17 1 1.1110652466887037 0.6406350504063745 5.232595617193275 0 0 0
4101 1 2.5148834381899983 2.498584488973891 4.063909407571982 0 1 -1
1179 2 1.7872294734503047 1.0781038579753885 3.815256480258846 0 0 0
2746 1 6.1224658355463335 0.6513847140725854 5.522563286475862 1 0 1
1455 1 7.542114601669601 1.7992089294230043 3.5879173325461053 0 1 0
2498 2 9.881874158349657 0.5227145686135388 6.0850737646285635 0 0 1
873 1 11.024781399070076 1.6033540555041896 6.4225620444124125 0 0 1
2567 1 13.525579917619469 2.056097018332167 3.3977573038709146 1 0 0
4104 1 16.81245723491559 1.7900175112599328 5.777266375298378 0 1 1
1528 1 19.714923430780388 1.0123870494860947 3.6183934760176464 0 1 1
1033 2 19.97381425915093 2.598644453482575 3.8766251417562057 0 0 0
1296 1 18.75434254677434 3.33203241958051 4.800847466564337 0 1 0
443 1 2.809510812976024 4.7857408425751125 2.9113326982547725 0 0 0
4349 2 2.183567754713799 4.07900653172452 4.220026149473888 1 1 1
2458 1 0.5706368945329291 4.304628330207713 4.080543126741695 1 0 0
2778 1 2.701347122623024 4.789693726620652 5.56003705744229 1 0 -1
2193 1 5.1602859852752285 5.497390405571563 5.187936535396471 0 1 0
808 1 6.601474823906146 4.1915798629526595 3.340163517158235 0 0 1
3223 2 6.484054558644104 5.4629808889246245 4.271670456849287 1 0 0
3211 1 8.006216456569476 5.664867116704148 5.047225297913676 1 0 0
925 1 12.506647802028485 3.6503953345260642 5.217573315647614 0 0 1
410 2 12.999634829916408 3.602246775073508 3.629898781762491 0 0 1
972 1 14.275154124758137 4.639524723669072 3.1873635031591094 0 0 1
2593 2 15.84428895233958 4.903108043754615 3.065134757623579 0 0 0
920 2 17.242726136416355 3.3171871879942127 5.403816113356373 0 0 0
1883 1 16.254705171087018 3.8200997494209408 4.211633577097101 0 1 0
3617 1 4.5293381347759 8.60520336017915 3.1029244165305614 0 1 0
3382 1 6.249311314112536 6.679354358615793 3.1843360373753296 1 0 0
2652 1 8.02156088752577 8.16849575342163 4.982059799313071 1 0 0
2094 2 9.01813268584852 6.959143447945343 4.509599388568113 0 1 0
2544 1 10.427389912338704 7.104713946477045 5.348117308860448 1 0 1
343 2 15.279453203031613 7.951535451164435 3.528702423888163 0 0 0
2440 1 14.522576794500718 7.6947687594211605 4.935492069063112 0 0 1
847 2 21.137673335771407 7.204565875576033 4.378781867900711 0 0 1
132 1 0.28673641562858004 11.228489782456348 4.011204346205879 0 0 0
984 1 3.143692491744723 9.785953736092745 4.9489840529686075 0 0 0
1687 2 4.668802790304131 9.695365521223003 4.3375540960186765 0 1 0
2352 1 4.701545804686705 11.12811236507831 3.613763009553793 0 0 0
13 1 5.8042078730057725 9.42870730386026 5.458555513798296 0 0 0
1911 1 11.641390743282674 9.592004602596111 5.102731756229168 0 1 1
390 2 11.155073328923946 10.54314482659096 3.8099727983237712 0 0 0
619 1 15.91747344659369 11.267226647227222 5.528969665579402 -1 0 1
206 1 16.42376719452752 9.167482956900974 3.6966214943962052 0 0 0
2905 2 16.762612291975977 10.70850622809948 4.212680274966987 0 0 1
3359 1 18.265208724747243 10.355854451649675 4.862130470019488 0 0 1
4005 1 20.85520676793803 10.560177100833512 5.41488067977456 0 1 0
1517 2 2.592204470511779 13.969898741343028 4.8725440757336616 1 1 0
1271 1 0.967596023596557 13.590627602677552 5.482442151885004 0 1 0
3795 2 0.3119794201453747 12.057932833784896 5.495866640855575 1 1 0
3448 1 2.9421377316964796 13.12715352298674 3.573167880244619 1 0 1
537 1 3.8196845909593407 13.902841938952553 5.895156033867535 0 0 -1
1066 1 6.212330369982379 13.329383480021365 4.775774891357619 0 0 1
1759 2 7.761388155071604 13.251801335683263 4.223991173292807 0 0 1
2758 1 9.014339804384985 12.922503436602467 5.223262529055765 1 0 0
3306 1 11.322443491911423 12.124836367576865 4.143699845216903 1 0 0
510 2 12.287254221841218 13.46768734606013 4.235002244826728 0 0 0
711 1 13.023452233954961 13.364721028356222 5.747639190010116 0 0 0
3386 2 17.96743302833935 13.4132979422071 2.9113556863013064 1 0 1
1073 1 17.729177873211324 11.928254837363761 3.6466263866419357 0 0 0
950 1 17.026568657624804 13.745334539299138 4.314621590625787 -1 0 1
2913 1 2.8468142320253476 1.9396055659469151 8.35523840673328 0 0 1
2881 2 4.417433522980364 2.412008018389088 8.081627534881704 0 0 1
396 1 7.318536336141203 3.209313871566272 6.114933175532666 1 0 1
4554 1 5.793693536028823 1.6381278704412472 7.661961965451601 1 1 1
3079 2 6.959635676688212 1.6133941611867306 6.490936575163509 1 0 0
835 1 8.40725650838567 0.8591379244128833 6.802074703262893 0 0 0
648 1 0.30037329112580835 2.2090753882536935 8.99229546225176 0 0 0
840 1 0.537387909032199 9.863263482736453 10.816142043873036 0 0 1
3148 2 11.933429112788795 1.7241160432391778 0.18446087626750352 1 0 1
2224 1 4.29500273457245 3.568254565738187 6.938817609773245 1 1 0
464 2 4.100650145592956 5.108247210970212 6.356123694310622 0 0 0
1290 1 9.923695723930361 3.8406930690546375 5.743402916800264 0 1 0
879 1 8.580005340698158 4.7962317618680235 7.729078832640981 0 0 0
3652 2 8.45653200418527 4.4399493101033 6.122714712559702 1 1 0
1492 2 11.391404120272941 3.2071315307708623 6.338174917180155 0 1 0
3541 1 11.868513002342143 3.9916583079256154 7.7121891845604935 0 1 0
819 2 15.557287925113119 4.670544142332563 7.762380030309926 0 0 0
3136 1 14.735800394276104 5.6295655467373145 6.724852656350518 0 0 0
2638 1 16.631966006703777 3.833936230549069 6.921917796195875 0 0 0
3331 1 16.723344718772214 5.509653551544627 8.713128901728789 1 0 2
322 1 1.8051486527044611 8.30182414916841 6.713997466759803 0 0 0
391 2 1.131909543887425 7.632461488420388 8.072176289959394 1 0 0
3861 1 4.2688282384569884 6.191392454032888 7.595411268881764 1 0 -1
276 1 6.761089926367532 8.176131392266257 7.611895615101419 0 0 0
1994 2 7.203663167411887 8.88345247214947 6.162631352879791 0 0 1
295 2 11.397674798955306 8.272846141692746 6.090187954680143 0 0 0
3311 1 12.73927653066477 7.619335269740994 6.8179735291305 1 0 1
1178 2 14.333120361218702 7.17713457886407 6.448774615839652 0 0 0
378 1 15.532938347297733 8.015534767543315 7.263808406504019 0 0 0
2785 2 15.940639306797518 8.7488981380004 8.666028618835313 1 0 0
1411 1 20.55172683411377 6.896377981057099 5.9131280952953285 0 0 0
842 2 20.85958082323917 6.656165251400194 7.506649631980015 -1 0 1
1209 1 19.355070639162157 6.960086421388548 8.333747762475566 0 0 0
1371 2 18.999091926158645 8.575871121276773 8.485960924336544 0 0 1
3980 1 1.2472808750426416 10.961342239993355 6.303926125887683 1 1 0
409 2 2.3730128259896044 9.744310589859762 6.331633036559901 0 0 1
149 2 19.206149912358605 11.816728535332935 12.424784518426685 0 0 0
3177 1 3.560539285147731 9.948452343816319 7.379471464503448 0 0 0
3100 2 4.718255178293949 10.895702549039104 8.008298849713785 1 0 1
993 1 5.9570695230160196 10.078658968525314 8.734906196335668 0 0 0
960 1 10.558401779704267 8.766694081939022 7.370470464004967 0 0 1
564 1 8.277493057821484 9.906568795643057 6.8323563876748 0 0 0
868 2 8.799273819619073 10.904966912268895 8.03944168605813 0 0 0
3454 1 15.364589260242601 10.215964685282973 8.10572199664464 1 0 0
4058 2 15.787199181413369 11.507336451445093 7.115084579320571 0 0 0
91 1 19.03745197592927 9.209653879224037 6.9363739869830905 0 0 0
4112 2 19.32602406642923 10.543906090881098 6.085406392005766 0 0 1
402 1 5.213236794551993 11.741874918990865 6.678992514394467 1 0 0
1801 2 5.267044608479596 13.203878027281073 6.040065975239526 0 0 1
3928 1 6.036502658554977 13.69630250455073 7.379420416975819 1 1 0
3106 1 7.547755824883475 11.866364873771001 8.396860882225313 1 0 1
2547 2 7.250810891852354 13.441587076393207 8.411090362239326 1 0 0
3993 1 8.5051767398955 14.037844900620932 7.518686457357937 0 1 1
1141 1 9.901120875981011 11.960907879608264 7.401254651048569 0 0 1
1034 2 9.792263243798168 13.386808041459199 6.599519799300191 0 0 0
2522 2 21.284942878859884 3.1038900230183826 1.1203079115084422 0 0 1
2200 1 13.369076325105048 13.519344028354267 8.381438212989558 0 0 1
246 2 13.952834728462507 14.031720246613565 6.911402275517461 0 0 0
855 1 14.97643718217171 12.878246527293022 7.3764814581100255 -1 0 1
792 1 17.948347685766297 14.018533649849738 6.737962461233365 0 0 1
3685 1 17.19148523560049 11.788330352522694 7.893757895634484 0 0 1
2526 2 18.305753368160367 12.92762761760904 7.9685771950219255 0 0 2
1699 1 19.239895410253943 11.810455126041196 7.109516436444527 0 1 1
3810 1 0.36377237335561796 6.3044194114317404 7.565327289637521 1 1 0
223 2 1.7080041480277157 1.5133064379957528 9.421973864744459 0 0 0
3954 1 2.263094053969251 1.950053376200597 10.892626740543717 1 1 0
1929 1 4.731345922433787 2.9905525497132697 9.564311950750954 0 1 0
1693 1 10.12267523449242 0.6355432661518365 10.188830077922388 0 1 0
3913 2 10.282477795521359 2.1548066898340243 10.700805843427213 1 1 0
4218 1 9.218592308443013 2.9087769116302984 9.725953889343412 0 1 0
1031 1 11.788597407954052 2.908265174500095 10.157162524272866 0 0 0
3328 1 19.325138899047044 1.656684861977268 9.51477566423554 1 0 0
2624 2 20.04251795264442 3.106739514000139 9.086292704771337 0 0 0
1666 1 4.289598652518289 5.443216687739979 10.20725860440701 1 1 1
3822 2 5.395388245960264 4.205707683585439 10.521819883643547 1 1 -1
1024 1 6.75486678159169 4.225804514226728 9.516810749076129 1 0 0
195 2 8.33654895286017 4.262038511501185 9.258060195053782 0 0 0
903 1 9.176283845025392 5.2189601857337005 10.290403752257584 0 0 0
4063 2 12.595448057429213 4.060797204401712 9.165859775699275 0 0 1
279 1 11.98978530651889 5.449638430945881 9.854515421115538 0 0 0
450 1 14.215631356123483 4.188265319882399 8.81894138668153 0 0 0
3248 2 18.339388921918808 5.729930656799714 9.009033899042509 1 0 1
34 1 18.867120444910586 4.176059557876903 8.713602621785496 -1 0 0
828 1 20.536818986881784 3.790663881164537 10.509954002356023 0 0 0
105 1 2.35237805774312 7.153374563543304 9.08299320809444 0 0 0
1192 1 4.973490177217099 7.857147423810298 9.576259837183075 0 0 1
869 2 3.9496415973926466 6.636201545766942 9.156880741432147 0 0 0
3151 2 6.42172714415288 8.572744882297235 9.201619514568133 1 0 1
3057 1 7.594599168985035 8.350141421423501 10.394392127701693 0 0 0
1962 1 10.102896426297113 7.592770247141421 9.843138719001189 0 0 1
2379 2 10.54118282383066 6.1202006346074835 10.417452063475501 1 0 0
18 1 15.099615748880828 7.873483065097522 9.78782437382066 0 0 0
4231 2 14.53383813819656 7.698983664825468 11.260751840339314 1 0 1
2781 1 18.45290572352102 6.105345804834245 10.593246877101706 1 0 0
2348 1 21.309189710294774 3.115484503312872 8.07680395761153 0 0 1
811 1 1.6383866298661027 11.120137689944436 9.097302506390985 0 0 2
1275 2 5.867408054977189 2.212852877613539 0.33352893307815085 0 1 0
3592 1 9.687114448128675 10.296429969769852 9.323323273404704 1 1 0
1496 2 9.807645858050531 11.112931414791062 10.829681416532125 0 1 -1
2285 2 10.61039951741452 8.917289398733391 8.968773871453322 0 1 1
710 1 12.080240913566755 9.454389539959887 9.477447904812916 0 0 1
435 2 12.78417708269363 10.216078165719978 10.767538425081842 0 0 1
1390 1 11.411146247936895 11.256715483320995 10.786661419572585 0 0 1
240 1 13.79662221643301 9.134988626436975 11.496946045830496 0 0 0
1487 1 17.509845559050888 8.637784565537599 9.049268893379999 0 1 0
2075 1 20.17468555321014 9.253495857463042 9.329108560917728 0 1 0
2718 2 20.62990641313724 9.408229033691603 10.950496036521917 0 0 0
1860 1 2.030938228979297 13.783255485159593 9.409833190405587 0 1 0
1328 2 2.6604466216689286 12.314665498349738 9.683633942533712 0 1 0
2350 1 3.221833207361914 12.217046884817558 11.226970637476128 1 0 1
3134 1 4.036756840811804 11.972225509501065 9.021433951325552 1 0 0
2104 1 7.143231548211554 13.679952157623099 10.003485631645525 0 1 0
2017 2 7.607342531262855 13.174571068016498 11.456514290658134 0 1 0
4309 1 9.080279107228357 12.511485819489119 11.189259812390615 1 0 1
2517 1 12.525573770297724 13.845760646462477 10.975570931881846 0 0 1
87 1 13.751254270072222 11.574527604223935 10.335630462760419 0 0 0
4181 2 13.652999541677085 13.185322711079444 9.962096603380443 0 1 1
2892 1 15.033600459326587 13.838604722943597 10.305642576534343 1 0 0
1577 1 17.458642399772042 13.578689732881445 9.22153310448164 0 0 1
1905 1 19.84987814958265 13.17576650384684 11.620341277402582 -1 1 0
3665 1 19.550075142758384 13.16560042438118 9.051302040775568 0 0 0
2671 2 19.891112077393284 14.217020328988323 10.332796656960614 0 0 0
4387 1 4.689306358841831 3.0431960365539843 11.566658017596565 1 1 1
217 2 3.6320555002338013 1.7782911058184174 11.86828696959631 0 0 0
2541 1 3.5111187873226304 1.7403925457726996 13.490304577154859 1 0 -1
1743 1 7.682103454272456 2.8047423896975903 13.38721001685659 0 0 1
1233 1 17.58218825419999 12.189189540740028 12.64532785791196 -1 0 -1
49 2 8.949061925756054 1.7637732769003907 13.575204024127927 0 0 0
609 1 9.829029759445165 2.2812811017235246 12.24449751720133 0 0 0
1126 1 13.182108416219911 1.6820258367178333 13.269117890852595 0 0 0
3881 1 17.118460233299796 1.4534996901693118 12.710497975427185 0 1 0
193 2 16.63156564780906 2.6572924468379067 13.652899026484418 0 0 0
249 1 20.67780532732449 2.819210541696392 12.988450213824878 0 1 0
331 1 13.181260779388452 13.968694375472166 13.620686574160823 0 0 0
1715 1 6.424231099580084 5.3470641838128365 14.221747921543763 0 1 0
2928 1 6.476952040003944 4.609951313807348 11.735266904738262 1 0 0
318 2 7.278925545955707 4.383762129833086 13.181574467086433 0 0 0
591 1 8.78822627266831 5.058428383491502 13.185185274655494 0 0 -1
2655 1 12.700927031342772 4.208551641063175 12.965988835629437 0 0 0
4160 2 13.541093616704927 3.1447003151924684 13.887494556900961 -1 1 0
4576 1 15.130314308878535 3.2292799374148053 13.609469788765566 1 1 0
1176 1 17.437212209059062 4.082816606538514 13.45194531706334 0 0 0
701 2 20.778319024476197 1.6683263448892567 14.144323347770273 0 0 1
1947 2 9.752290170839913 6.38609499070841 13.216938194513311 0 0 0
3828 1 8.809092988731365 7.6418393600691426 12.890376455888513 1 1 1
289 2 12.505741738627417 5.8859688377689725 12.682368531622455 0 0 -1
4381 1 10.919755982082618 6.1366314007781675 12.068393882112717 0 1 1
3982 1 12.716127595886721 6.7147825211475105 14.085203329620299 1 1 0
3451 1 13.424368507115593 6.5139640402101895 11.463332396672945 1 0 0
1124 1 15.69641641109144 7.347856345861439 12.393706308472709 0 0 0
2717 2 16.628842753457366 7.84449230682985 13.667785202698706 1 0 0
4602 1 17.858912770775905 7.9701407809173315 12.559414006985664 -1 1 2
669 1 5.036883190768415 10.960579109461184 13.901970792174838 0 0 1
2372 1 19.23246431456872 5.930080262055207 13.094997392976852 0 0 0
2179 1 20.531641750088838 7.841573515117247 11.6769282491474 0 0 0
2357 2 19.031623341023703 7.038055164857838 11.845861673309523 0 0 0
3762 1 0.7510209013328524 9.003611720062809 13.462512704187548 1 1 -1
2836 2 8.145493720935889 8.801047999988999 11.918245012689793 1 0 0
4020 1 7.045925180819553 9.498903112648316 12.87004786745137 1 1 0
341 2 6.579786293917958 10.969479126593123 13.437631685930402 0 0 0
2555 1 6.73920750744342 11.981655640075497 12.165486043955037 0 0 0
4261 1 9.229776754405071 10.019356544453602 11.838385268497422 1 0 0
312 1 12.092503286114345 10.060574979891175 12.280565343959312 0 0 0
4156 2 11.803452150167539 10.93806866444981 13.614285603775713 0 1 1
2799 1 15.306990917658831 11.320603273840854 13.89493856315288 0 0 0
2918 1 19.46295382287047 10.47339708766264 11.510140765167186 -1 0 1
3952 1 19.89573113858593 11.335913371978124 13.81903438817016 1 0 0
235 1 2.3175660088185714 14.050491915861642 13.082498869717803 0 0 0
3752 2 3.4393621833173347 12.92698496383125 12.748785793762618 1 1 -1
2992 1 4.899990956587509 13.687568595690813 12.760627788577105 0 0 0
3358 1 3.2113663815512266 11.795634760482256 13.893181644475487 1 0 0
1012 2 16.48915927159404 12.4364563827572 13.823914188911553 0 0 0
2209 2 0.3010995391973542 7.695270473663713 2.260618090332191 1 1 0
2917 1 15.209967913694603 8.707933026952237 14.167481175540487 0 0 0
2059 1 2.4802051654081345 3.188226928182484 15.34084158847126 0 1 0
3093 1 1.633065954003165 1.745960726482759 16.932283000315813 1 0 1
727 2 3.947680413292443 2.5643382837511615 14.89276158706017 0 0 0
561 1 4.64381432227455 1.7045862190556864 16.11912394610019 0 1 0
1916 1 9.60890917306809 2.0033647500907508 15.077626838617888 0 1 0
1448 2 9.645100192553175 2.9438022656704432 16.508435334918428 0 1 -1
4032 1 17.333735905590206 2.5878644861323896 15.148777480555097 1 1 0
1105 2 18.630041283731128 3.007103637027819 16.007257593323946 0 1 0
1624 1 19.849092711146525 2.153031348271072 15.395254180010731 -1 1 0
2086 1 10.523114643946904 6.654631050311324 14.613370601068604 1 1 0
674 2 1.3330485019614553 3.3688787062076178 16.568738530414702 0 0 0
4175 1 1.7772551065670517 4.968404027619621 16.341939992402125 0 1 0
4135 2 1.9258815792754103 6.033296785917366 15.139295495530433 1 1 0
1048 1 4.710806207853168 3.991820505196468 14.650365409896894 0 0 0
3269 2 5.078823545698419 5.549235497118503 15.194141744759216 1 0 0
3408 1 3.5213771652183326 5.866308716103236 14.670133754778789 1 0 0
3839 1 5.8114633044594575 5.207617386980264 16.65594904502093 1 1 0
1676 1 8.157550531529697 3.661762641455557 16.79956850675929 1 0 1
4450 1 13.190818172372106 3.222977839271653 15.448712051103444 0 1 0
1613 2 12.703765506178858 4.134886645133701 16.755328961968416 0 1 0
353 1 12.68926300477499 5.715701501796814 16.361818279372503 0 0 0
3254 1 11.110996290199285 3.702387223147245 16.717204415210354 1 0 1
346 1 18.776273700949208 4.688385398494636 15.760465879634667 0 0 0
2311 2 19.293707982343776 5.790899410415484 17.03255415105781 0 0 0
970 1 1.5184444613875823 7.504202936840195 15.57757694525882 1 0 0
2531 1 4.834277038969069 7.179331757240868 15.559974110973275 1 0 1
2000 2 4.632555564782717 8.416556080407815 16.669364285231563 0 1 0
1692 1 8.25303773156472 6.264326233117397 16.818517638628492 0 1 0
2467 1 8.97475548059108 12.066530080347809 26.420292367808482 0 0 -1
2752 1 10.807523532608714 6.699809414509226 16.74334117954921 1 0 0
4015 2 11.904017237467016 6.939466350688021 15.548491499662251 1 1 0
3622 1 11.970891267871245 8.52103102320784 15.979664668360845 0 1 -1
2609 1 7.197160836084254 13.363777511807063 28.012251633553223 0 0 -1
3077 2 18.592750306272062 8.628399938169917 16.02563908675311 0 0 0
2468 1 17.452271183733743 8.727376501027493 14.869107852268439 0 0 -1
2842 1 18.583264244452515 7.279568046405667 16.96787944106889 1 0 0
4517 2 1.2790114906998256 8.985659450544645 15.051229871408848 1 1 0
4479 1 19.107656144377252 13.701927239316882 25.679959527865122 1 1 0
4458 1 2.8111785793561674 9.683868316526304 15.058179081648383 1 0 1
1672 1 4.8289957309388996 9.81651526351557 15.873145038577002 0 1 0
607 2 3.88591791219206 10.969002378620013 15.124798574823101 0 0 0
888 1 15.34706656477756 11.698819627932705 28.200087868060805 0 0 -1
4379 1 9.19404111933448 11.49361831137975 16.902130537513223 0 1 1
2657 1 9.404569889658392 8.850306762389536 17.063076192909183 0 0 -1
495 1 10.299911406696188 10.83674310721616 14.514383006094729 0 0 0
923 1 13.13647441708069 10.718194893477614 14.526526718055557 0 0 1
3946 1 13.97786592208166 9.515702554632158 16.265879756159244 0 1 0
488 2 14.677360163623947 10.080880765358236 14.87146850595064 0 0 0
3657 1 15.734589441623218 10.526529614193711 16.098384703949463 0 0 -1
698 2 17.092713162732988 11.2124427466859 16.61906532078127 0 0 0
2927 1 18.236115263637554 10.047248319899182 16.763933388846283 0 0 1
1460 1 19.933969311584494 8.897991097694474 15.180739934060892 0 1 -1
793 2 20.78873791462918 10.176340233145702 14.509898984550267 -1 0 0
2907 2 3.3434054558301827 13.724362346258257 16.714697945728346 0 0 0
4188 1 3.6330755315874983 12.143240131676807 16.308864062824643 1 1 0
554 2 9.116079070904382 11.768232419007616 15.229064392726315 0 0 0
2725 1 9.335246446466664 13.452555324586047 15.074334171448703 1 0 0
4213 1 17.227717665870184 12.189451229725059 15.253852619246324 0 1 0
1285 1 0.7575316843143434 1.1745687053060456 19.44312900816515 0 1 0
1086 2 1.8128135298140813 0.7462498548659655 18.196144576675973 0 0 1
636 1 3.393289787824087 0.9626185637169596 18.469034071491386 0 0 1
1514 2 4.833825591624679 1.4335895312908402 17.741719410667145 0 1 0
3374 1 5.152756372960374 2.7192366500573715 18.786218994291357 1 0 -1
4115 1 9.417429956117195 2.1151506861671012 17.940489168194933 0 1 0
3220 2 10.028516897468327 1.4711341846196955 19.283851558278133 0 0 0
2825 1 21.257928075923832 12.047001421778743 17.269685067662135 1 0 0
452 1 15.939154216339194 3.2072228627926203 18.614770064871315 0 0 1
774 2 17.100374641521178 1.998309701600129 18.638245748097283 0 0 1
2705 1 18.325878356489063 2.828284129052911 19.432691250919913 0 0 0
3085 1 18.279484038678802 2.3931439466427653 17.477677271982035 0 0 1
1553 1 16.45156038008375 0.5748365679480242 18.10370314591378 -1 1 -1
4142 1 20.765961368965684 3.067624733738444 18.68884472797545 0 1 0
3516 1 1.1373879474950441 3.855772653676161 18.187595775285388 1 1 -1
3176 2 1.5431894415482128 4.122270794045486 19.771695522586093 1 0 0
976 1 2.151024403179698 5.611576610011291 20.160739207084664 0 0 0
751 2 7.3030485366144005 4.986751877642314 17.293873715271996 0 0 1
757 1 7.319896799507553 5.401974992701472 18.89452364722232 0 0 1
423 1 13.64088988717059 3.778442569935551 18.053245104714474 0 0 0
1322 2 14.801984244383117 4.076233046633316 19.37030644366954 0 1 0
4607 1 15.333110303176449 5.644265501952688 19.391632873329957 0 1 1
1550 1 19.209286896917295 5.0674275440727135 18.54378771644564 -1 1 -1
27 2 19.56929449547791 3.8223305379182486 19.4169144205149 0 0 0
1861 1 0.802830325074352 8.09707570196907 19.006300523894442 0 1 1
1805 2 2.3175160273980944 8.672851972334845 18.801218946007285 0 1 0
2585 1 3.137294879293869 8.405683925647075 17.36045558384964 1 0 0
2721 1 3.4201386306951678 7.665346640736398 19.419382693020722 1 0 -1
830 1 5.829456286678335 8.374305314020242 17.85962638683119 0 0 1
1277 2 9.444457649086175 7.265378583930207 17.313254714820822 0 1 0
3738 1 9.200968809111307 7.039651012926113 18.935712940409143 1 1 -1
930 1 12.69317910766597 8.533028851113967 18.50046721654722 0 0 0
4391 1 20.838098930132173 6.343662319706583 17.05312094855941 0 1 0
3190 1 2.6274940531483977 10.135599765348223 19.473779817521606 1 0 0
4374 2 6.563239884714706 9.080710319910976 19.199107448923666 1 1 0
782 1 7.797406032248507 10.111206216552924 18.734957093949276 0 0 0
2960 2 9.160187946825628 10.224440422774807 17.900214857650784 0 0 0
1505 1 10.401578788987507 10.47582616407828 18.95785397601147 0 1 -1
2861 2 12.611219342424034 9.49836540545143 17.142238553429305 1 0 0
2013 1 12.302813248055818 11.109858765980354 17.34783709399939 0 0 1
3942 2 18.253821098127602 5.274324074605963 14.241798907325276 0 1 0
144 1 2.448386005487246 13.727629535789585 18.085656538629163 0 0 -1
2673 1 9.966958580241954 13.945212225556482 19.532761942723 0 0 1
3188 1 11.823156641162086 13.810630299159136 17.92292297551739 0 0 0
2642 2 12.68069791392711 12.442296761770079 18.232062546743467 0 0 -1
2850 1 12.159930586200971 11.898830312186965 19.768770736178457 1 0 0
1723 1 14.239073290529182 12.85843425694712 17.99510078276691 0 0 0
462 2 15.772046202661588 13.310332888498065 18.347107818797525 0 0 -1
3431 1 16.769012390553844 12.043635312530801 17.96591053909137 1 0 0
3373 1 4.354919777882102 14.364327723912494 22.96203576536589 1 0 0
100 2 20.620308662102804 12.898276081079292 18.501712061914873 0 0 0
709 1 19.43063457949725 12.348023206861514 19.422084923383927 -1 0 0
4072 1 7.574872409363421 11.567529497723937 14.596245409654466 1 0 0
761 1 2.009373654670245 0.4344823818001913 21.4789193578782 0 1 0
3992 2 0.5216719300200361 1.1024958342755953 21.06598287642717 1 1 -1
3566 1 4.232250184979531 2.1638832511453048 21.218726550125147 1 1 0
3027 2 3.62276085594369 0.621552902457539 21.438177170276404 1 1 0
3347 1 2.830225373964638 3.205401643046908 20.0509800780328 0 0 0
83 1 7.9013579877886615 0.5069203850801054 22.393682637457154 0 0 0
586 1 20.069192932991594 14.129506002830276 17.541413992104644 0 0 0
201 1 8.522006867693847 3.168884988158449 21.75897425004142 0 0 -1
1309 1 10.756365113282687 2.6210283098212765 20.341594917714154 0 1 -1
427 1 12.971297652515503 1.6273248861560503 21.92826190405241 0 0 -1
3392 2 12.438751387683224 2.6374039802356353 20.766804888171976 1 0 1
783 1 16.812492281262184 1.7988278976857854 20.243510585133656 0 0 0
2546 2 16.497485459905842 2.5544473716944567 21.58282490741797 0 0 -1
2444 1 0.31293009836772206 4.284817292394569 20.844515912164347 0 1 -1
2255 1 4.550357583037267 5.128395695586275 20.068505558905667 1 1 0
2786 2 4.496887913994015 3.4047993949459325 20.106510344975835 0 0 0
1283 1 5.247385103657369 3.9197359985141067 21.539146763830217 0 1 0
3017 1 9.283202123238274 5.01306993417847 19.951365430513114 0 0 0
2689 2 9.817181250765517 3.847769801901924 20.93653107175563 1 0 -1
2485 1 10.774974298680002 4.739230162372542 21.93637185455276 0 0 0
659 1 13.307572867123145 3.750163670558217 20.037182468315276 0 0 1
1459 1 15.374648128194373 3.5198603834198927 20.850211119880274 -1 1 -1
4594 1 17.747199992289595 3.470531495082276 22.16757414445424 1 1 0
1307 1 19.890016329866246 4.094266347161069 21.07833820754118 -1 0 0
294 2 19.363436954716352 3.592971999537969 22.558276332997522 0 0 -1
4027 1 3.715214278333716 6.880544579364611 21.92972249945582 1 1 0
2622 2 3.5355637568152196 6.407078649528535 20.376159848053884 1 0 0
2530 1 7.2512949978539 7.821176496596268 20.05799651844028 0 0 0
3002 2 8.172602202847655 6.350853696224609 19.984971465741516 0 0 1
1235 1 8.352262946808368 6.301349843049866 21.621721457488114 0 0 0
1040 2 12.65800412735688 8.31563392983042 20.214549999304214 0 0 0
2404 2 11.400366008164141 6.297382179517899 22.256539913938724 0 0 0